# vtk DataFile Version 3.0
vtk output
ASCII
DATASET POLYDATA
POINTS 50 float
32.4226 35.8068 31.7308 32.4226 35.8068 27.8908 33.2557 35.8068 31.5407 
33.9237 35.8068 31.0079 34.2945 35.8068 30.238 34.2945 35.8068 29.3836 
33.9237 35.8068 28.6137 33.2557 35.8068 28.0809 33.0117 36.3959 31.5407 
33.4841 36.8683 31.0079 33.7462 37.1304 30.238 33.7462 37.1304 29.3836 
33.4841 36.8683 28.6137 33.0117 36.3959 28.0809 32.4226 36.6399 31.5407 
32.4226 37.3079 31.0079 32.4226 37.6787 30.238 32.4226 37.6787 29.3836 
32.4226 37.3079 28.6137 32.4226 36.6399 28.0809 31.8335 36.3959 31.5407 
31.3612 36.8683 31.0079 31.099 37.1304 30.238 31.099 37.1304 29.3836 
31.3612 36.8683 28.6137 31.8335 36.3959 28.0809 31.5895 35.8068 31.5407 
30.9215 35.8068 31.0079 30.5507 35.8068 30.238 30.5507 35.8068 29.3836 
30.9215 35.8068 28.6137 31.5895 35.8068 28.0809 31.8335 35.2177 31.5407 
31.3612 34.7453 31.0079 31.099 34.4832 30.238 31.099 34.4832 29.3836 
31.3612 34.7453 28.6137 31.8335 35.2177 28.0809 32.4226 34.9737 31.5407 
32.4226 34.3057 31.0079 32.4226 33.9349 30.238 32.4226 33.9349 29.3836 
32.4226 34.3057 28.6137 32.4226 34.9737 28.0809 33.0117 35.2177 31.5407 
33.4841 34.7453 31.0079 33.7462 34.4832 30.238 33.7462 34.4832 29.3836 
33.4841 34.7453 28.6137 33.0117 35.2177 28.0809 
POLYGONS 96 384
3 2 8 0 
3 8 14 0 
3 14 20 0 
3 20 26 0 
3 26 32 0 
3 32 38 0 
3 38 44 0 
3 44 2 0 
3 7 1 13 
3 13 1 19 
3 19 1 25 
3 25 1 31 
3 31 1 37 
3 37 1 43 
3 43 1 49 
3 49 1 7 
3 2 3 9 
3 2 9 8 
3 3 4 10 
3 3 10 9 
3 4 5 11 
3 4 11 10 
3 5 6 12 
3 5 12 11 
3 6 7 13 
3 6 13 12 
3 8 9 15 
3 8 15 14 
3 9 10 16 
3 9 16 15 
3 10 11 17 
3 10 17 16 
3 11 12 18 
3 11 18 17 
3 12 13 19 
3 12 19 18 
3 14 15 21 
3 14 21 20 
3 15 16 22 
3 15 22 21 
3 16 17 23 
3 16 23 22 
3 17 18 24 
3 17 24 23 
3 18 19 25 
3 18 25 24 
3 20 21 27 
3 20 27 26 
3 21 22 28 
3 21 28 27 
3 22 23 29 
3 22 29 28 
3 23 24 30 
3 23 30 29 
3 24 25 31 
3 24 31 30 
3 26 27 33 
3 26 33 32 
3 27 28 34 
3 27 34 33 
3 28 29 35 
3 28 35 34 
3 29 30 36 
3 29 36 35 
3 30 31 37 
3 30 37 36 
3 32 33 39 
3 32 39 38 
3 33 34 40 
3 33 40 39 
3 34 35 41 
3 34 41 40 
3 35 36 42 
3 35 42 41 
3 36 37 43 
3 36 43 42 
3 38 39 45 
3 38 45 44 
3 39 40 46 
3 39 46 45 
3 40 41 47 
3 40 47 46 
3 41 42 48 
3 41 48 47 
3 42 43 49 
3 42 49 48 
3 44 45 3 
3 44 3 2 
3 45 46 4 
3 45 4 3 
3 46 47 5 
3 46 5 4 
3 47 48 6 
3 47 6 5 
3 48 49 7 
3 48 7 6 

POINT_DATA 50
COLOR_SCALARS Colors 3
0.752941 0.752941 0.752941 0.752941 0.752941 0.752941 0.752941 0.752941 0.752941 
0.752941 0.752941 0.752941 0.752941 0.752941 0.752941 
0.752941 0.752941 0.752941 0.752941 0.752941 0.752941 
0.752941 0.752941 0.752941 0.752941 0.752941 0.752941 
0.752941 0.752941 0.752941 0.752941 0.752941 0.752941 
0.752941 0.752941 0.752941 0.752941 0.752941 0.752941 
0.752941 0.752941 0.752941 0.752941 0.752941 0.752941 
0.752941 0.752941 0.752941 0.752941 0.752941 0.752941 
0.752941 0.752941 0.752941 0.752941 0.752941 0.752941 
0.752941 0.752941 0.752941 0.752941 0.752941 0.752941 
0.752941 0.752941 0.752941 0.752941 0.752941 0.752941 
0.752941 0.752941 0.752941 0.752941 0.752941 0.752941 
0.752941 0.752941 0.752941 0.752941 0.752941 0.752941 
0.752941 0.752941 0.752941 0.752941 0.752941 0.752941 
0.752941 0.752941 0.752941 0.752941 0.752941 0.752941 
0.752941 0.752941 0.752941 0.752941 0.752941 0.752941 
0.752941 0.752941 0.752941 0.752941 0.752941 0.752941 
0.752941 0.752941 0.752941 0.752941 0.752941 0.752941 
0.752941 0.752941 0.752941 0.752941 0.752941 0.752941 
0.752941 0.752941 0.752941 0.752941 0.752941 0.752941 
0.752941 0.752941 0.752941 0.752941 0.752941 0.752941 
0.752941 0.752941 0.752941 0.752941 0.752941 0.752941 
0.752941 0.752941 0.752941 0.752941 0.752941 0.752941 
0.752941 0.752941 0.752941 0.752941 0.752941 0.752941 
0.752941 0.752941 0.752941 
NORMALS Normals float
0 0 1 0 0 -1 0.433884 0 0.900969 
0.781832 0 0.62349 0.974928 0 0.222521 0.974928 0 -0.222521 
0.781832 0 -0.62349 0.433884 0 -0.900969 0.306802 0.306802 0.900969 
0.552838 0.552838 0.62349 0.689378 0.689378 0.222521 0.689378 0.689378 -0.222521 
0.552838 0.552838 -0.62349 0.306802 0.306802 -0.900969 2.65677e-017 0.433884 0.900969 
4.78734e-017 0.781832 0.62349 5.96971e-017 0.974928 0.222521 5.96971e-017 0.974928 -0.222521 
4.78734e-017 0.781832 -0.62349 2.65677e-017 0.433884 -0.900969 -0.306802 0.306802 0.900969 
-0.552838 0.552838 0.62349 -0.689378 0.689378 0.222521 -0.689378 0.689378 -0.222521 
-0.552838 0.552838 -0.62349 -0.306802 0.306802 -0.900969 -0.433884 5.31354e-017 0.900969 
-0.781832 9.57467e-017 0.62349 -0.974928 1.19394e-016 0.222521 -0.974928 1.19394e-016 -0.222521 
-0.781832 9.57467e-017 -0.62349 -0.433884 5.31354e-017 -0.900969 -0.306802 -0.306802 0.900969 
-0.552838 -0.552838 0.62349 -0.689378 -0.689378 0.222521 -0.689378 -0.689378 -0.222521 
-0.552838 -0.552838 -0.62349 -0.306802 -0.306802 -0.900969 -7.97031e-017 -0.433884 0.900969 
-1.4362e-016 -0.781832 0.62349 -1.79091e-016 -0.974928 0.222521 -1.79091e-016 -0.974928 -0.222521 
-1.4362e-016 -0.781832 -0.62349 -7.97031e-017 -0.433884 -0.900969 0.306802 -0.306802 0.900969 
0.552838 -0.552838 0.62349 0.689378 -0.689378 0.222521 0.689378 -0.689378 -0.222521 
0.552838 -0.552838 -0.62349 0.306802 -0.306802 -0.900969 
