# vtk DataFile Version 3.0
vtk output
ASCII
DATASET POLYDATA
POINTS 50 float
23.4904 15.5594 31.92 23.4904 15.5594 28.08 24.3235 15.5594 31.7299 
24.9915 15.5594 31.1971 25.3623 15.5594 30.4272 25.3623 15.5594 29.5728 
24.9915 15.5594 28.8029 24.3235 15.5594 28.2701 24.0795 16.1485 31.7299 
24.5518 16.6208 31.1971 24.814 16.883 30.4272 24.814 16.883 29.5728 
24.5518 16.6208 28.8029 24.0795 16.1485 28.2701 23.4904 16.3925 31.7299 
23.4904 17.0605 31.1971 23.4904 17.4313 30.4272 23.4904 17.4313 29.5728 
23.4904 17.0605 28.8029 23.4904 16.3925 28.2701 22.9013 16.1485 31.7299 
22.429 16.6208 31.1971 22.1668 16.883 30.4272 22.1668 16.883 29.5728 
22.429 16.6208 28.8029 22.9013 16.1485 28.2701 22.6573 15.5594 31.7299 
21.9893 15.5594 31.1971 21.6185 15.5594 30.4272 21.6185 15.5594 29.5728 
21.9893 15.5594 28.8029 22.6573 15.5594 28.2701 22.9013 14.9703 31.7299 
22.429 14.4979 31.1971 22.1668 14.2358 30.4272 22.1668 14.2358 29.5728 
22.429 14.4979 28.8029 22.9013 14.9703 28.2701 23.4904 14.7263 31.7299 
23.4904 14.0583 31.1971 23.4904 13.6875 30.4272 23.4904 13.6875 29.5728 
23.4904 14.0583 28.8029 23.4904 14.7263 28.2701 24.0795 14.9703 31.7299 
24.5518 14.4979 31.1971 24.814 14.2358 30.4272 24.814 14.2358 29.5728 
24.5518 14.4979 28.8029 24.0795 14.9703 28.2701 
POLYGONS 96 384
3 2 8 0 
3 8 14 0 
3 14 20 0 
3 20 26 0 
3 26 32 0 
3 32 38 0 
3 38 44 0 
3 44 2 0 
3 7 1 13 
3 13 1 19 
3 19 1 25 
3 25 1 31 
3 31 1 37 
3 37 1 43 
3 43 1 49 
3 49 1 7 
3 2 3 9 
3 2 9 8 
3 3 4 10 
3 3 10 9 
3 4 5 11 
3 4 11 10 
3 5 6 12 
3 5 12 11 
3 6 7 13 
3 6 13 12 
3 8 9 15 
3 8 15 14 
3 9 10 16 
3 9 16 15 
3 10 11 17 
3 10 17 16 
3 11 12 18 
3 11 18 17 
3 12 13 19 
3 12 19 18 
3 14 15 21 
3 14 21 20 
3 15 16 22 
3 15 22 21 
3 16 17 23 
3 16 23 22 
3 17 18 24 
3 17 24 23 
3 18 19 25 
3 18 25 24 
3 20 21 27 
3 20 27 26 
3 21 22 28 
3 21 28 27 
3 22 23 29 
3 22 29 28 
3 23 24 30 
3 23 30 29 
3 24 25 31 
3 24 31 30 
3 26 27 33 
3 26 33 32 
3 27 28 34 
3 27 34 33 
3 28 29 35 
3 28 35 34 
3 29 30 36 
3 29 36 35 
3 30 31 37 
3 30 37 36 
3 32 33 39 
3 32 39 38 
3 33 34 40 
3 33 40 39 
3 34 35 41 
3 34 41 40 
3 35 36 42 
3 35 42 41 
3 36 37 43 
3 36 43 42 
3 38 39 45 
3 38 45 44 
3 39 40 46 
3 39 46 45 
3 40 41 47 
3 40 47 46 
3 41 42 48 
3 41 48 47 
3 42 43 49 
3 42 49 48 
3 44 45 3 
3 44 3 2 
3 45 46 4 
3 45 4 3 
3 46 47 5 
3 46 5 4 
3 47 48 6 
3 47 6 5 
3 48 49 7 
3 48 7 6 

POINT_DATA 50
COLOR_SCALARS Colors 3
0.752941 0.752941 0.752941 0.752941 0.752941 0.752941 0.752941 0.752941 0.752941 
0.752941 0.752941 0.752941 0.752941 0.752941 0.752941 
0.752941 0.752941 0.752941 0.752941 0.752941 0.752941 
0.752941 0.752941 0.752941 0.752941 0.752941 0.752941 
0.752941 0.752941 0.752941 0.752941 0.752941 0.752941 
0.752941 0.752941 0.752941 0.752941 0.752941 0.752941 
0.752941 0.752941 0.752941 0.752941 0.752941 0.752941 
0.752941 0.752941 0.752941 0.752941 0.752941 0.752941 
0.752941 0.752941 0.752941 0.752941 0.752941 0.752941 
0.752941 0.752941 0.752941 0.752941 0.752941 0.752941 
0.752941 0.752941 0.752941 0.752941 0.752941 0.752941 
0.752941 0.752941 0.752941 0.752941 0.752941 0.752941 
0.752941 0.752941 0.752941 0.752941 0.752941 0.752941 
0.752941 0.752941 0.752941 0.752941 0.752941 0.752941 
0.752941 0.752941 0.752941 0.752941 0.752941 0.752941 
0.752941 0.752941 0.752941 0.752941 0.752941 0.752941 
0.752941 0.752941 0.752941 0.752941 0.752941 0.752941 
0.752941 0.752941 0.752941 0.752941 0.752941 0.752941 
0.752941 0.752941 0.752941 0.752941 0.752941 0.752941 
0.752941 0.752941 0.752941 0.752941 0.752941 0.752941 
0.752941 0.752941 0.752941 0.752941 0.752941 0.752941 
0.752941 0.752941 0.752941 0.752941 0.752941 0.752941 
0.752941 0.752941 0.752941 0.752941 0.752941 0.752941 
0.752941 0.752941 0.752941 0.752941 0.752941 0.752941 
0.752941 0.752941 0.752941 
NORMALS Normals float
0 0 1 0 0 -1 0.433884 0 0.900969 
0.781832 0 0.62349 0.974928 0 0.222521 0.974928 0 -0.222521 
0.781832 0 -0.62349 0.433884 0 -0.900969 0.306802 0.306802 0.900969 
0.552838 0.552838 0.62349 0.689378 0.689378 0.222521 0.689378 0.689378 -0.222521 
0.552838 0.552838 -0.62349 0.306802 0.306802 -0.900969 2.65677e-017 0.433884 0.900969 
4.78734e-017 0.781832 0.62349 5.96971e-017 0.974928 0.222521 5.96971e-017 0.974928 -0.222521 
4.78734e-017 0.781832 -0.62349 2.65677e-017 0.433884 -0.900969 -0.306802 0.306802 0.900969 
-0.552838 0.552838 0.62349 -0.689378 0.689378 0.222521 -0.689378 0.689378 -0.222521 
-0.552838 0.552838 -0.62349 -0.306802 0.306802 -0.900969 -0.433884 5.31354e-017 0.900969 
-0.781832 9.57467e-017 0.62349 -0.974928 1.19394e-016 0.222521 -0.974928 1.19394e-016 -0.222521 
-0.781832 9.57467e-017 -0.62349 -0.433884 5.31354e-017 -0.900969 -0.306802 -0.306802 0.900969 
-0.552838 -0.552838 0.62349 -0.689378 -0.689378 0.222521 -0.689378 -0.689378 -0.222521 
-0.552838 -0.552838 -0.62349 -0.306802 -0.306802 -0.900969 -7.97031e-017 -0.433884 0.900969 
-1.4362e-016 -0.781832 0.62349 -1.79091e-016 -0.974928 0.222521 -1.79091e-016 -0.974928 -0.222521 
-1.4362e-016 -0.781832 -0.62349 -7.97031e-017 -0.433884 -0.900969 0.306802 -0.306802 0.900969 
0.552838 -0.552838 0.62349 0.689378 -0.689378 0.222521 0.689378 -0.689378 -0.222521 
0.552838 -0.552838 -0.62349 0.306802 -0.306802 -0.900969 
