# vtk DataFile Version 3.0
vtk output
ASCII
DATASET POLYDATA
POINTS 1400 float
149.5 88 64 149.5 88 61 150.151 88 63.8515 
150.673 88 63.4352 150.962 88 62.8338 150.962 88 62.1662 
150.673 88 61.5648 150.151 88 61.1485 149.96 88.4602 63.8515 
150.329 88.8293 63.4352 150.534 89.0341 62.8338 150.534 89.0341 62.1662 
150.329 88.8293 61.5648 149.96 88.4602 61.1485 149.5 88.6508 63.8515 
149.5 89.1727 63.4352 149.5 89.4624 62.8338 149.5 89.4624 62.1662 
149.5 89.1727 61.5648 149.5 88.6508 61.1485 149.04 88.4602 63.8515 
148.671 88.8293 63.4352 148.466 89.0341 62.8338 148.466 89.0341 62.1662 
148.671 88.8293 61.5648 149.04 88.4602 61.1485 148.849 88 63.8515 
148.327 88 63.4352 148.038 88 62.8338 148.038 88 62.1662 
148.327 88 61.5648 148.849 88 61.1485 149.04 87.5398 63.8515 
148.671 87.1707 63.4352 148.466 86.9659 62.8338 148.466 86.9659 62.1662 
148.671 87.1707 61.5648 149.04 87.5398 61.1485 149.5 87.3492 63.8515 
149.5 86.8273 63.4352 149.5 86.5376 62.8338 149.5 86.5376 62.1662 
149.5 86.8273 61.5648 149.5 87.3492 61.1485 149.96 87.5398 63.8515 
150.329 87.1707 63.4352 150.534 86.9659 62.8338 150.534 86.9659 62.1662 
150.329 87.1707 61.5648 149.96 87.5398 61.1485 146 60 418.5 
146 60 415.5 146.651 60 418.351 147.173 60 417.935 
147.462 60 417.334 147.462 60 416.666 147.173 60 416.065 
146.651 60 415.649 146.46 60.4602 418.351 146.829 60.8293 417.935 
147.034 61.0341 417.334 147.034 61.0341 416.666 146.829 60.8293 416.065 
146.46 60.4602 415.649 146 60.6508 418.351 146 61.1727 417.935 
146 61.4624 417.334 146 61.4624 416.666 146 61.1727 416.065 
146 60.6508 415.649 145.54 60.4602 418.351 145.171 60.8293 417.935 
144.966 61.0341 417.334 144.966 61.0341 416.666 145.171 60.8293 416.065 
145.54 60.4602 415.649 145.349 60 418.351 144.827 60 417.935 
144.538 60 417.334 144.538 60 416.666 144.827 60 416.065 
145.349 60 415.649 145.54 59.5398 418.351 145.171 59.1707 417.935 
144.966 58.9659 417.334 144.966 58.9659 416.666 145.171 59.1707 416.065 
145.54 59.5398 415.649 146 59.3492 418.351 146 58.8273 417.935 
146 58.5376 417.334 146 58.5376 416.666 146 58.8273 416.065 
146 59.3492 415.649 146.46 59.5398 418.351 146.829 59.1707 417.935 
147.034 58.9659 417.334 147.034 58.9659 416.666 146.829 59.1707 416.065 
146.46 59.5398 415.649 154.512 151.508 182.993 154.512 151.508 179.993 
155.162 151.508 182.845 155.684 151.508 182.429 155.974 151.508 181.827 
155.974 151.508 181.16 155.684 151.508 180.558 155.162 151.508 180.142 
154.972 151.969 182.845 155.341 152.338 182.429 155.546 152.542 181.827 
155.546 152.542 181.16 155.341 152.338 180.558 154.972 151.969 180.142 
154.512 152.159 182.845 154.512 152.681 182.429 154.512 152.971 181.827 
154.512 152.971 181.16 154.512 152.681 180.558 154.512 152.159 180.142 
154.051 151.969 182.845 153.682 152.338 182.429 153.477 152.542 181.827 
153.477 152.542 181.16 153.682 152.338 180.558 154.051 151.969 180.142 
153.861 151.508 182.845 153.339 151.508 182.429 153.049 151.508 181.827 
153.049 151.508 181.16 153.339 151.508 180.558 153.861 151.508 180.142 
154.051 151.048 182.845 153.682 150.679 182.429 153.477 150.474 181.827 
153.477 150.474 181.16 153.682 150.679 180.558 154.051 151.048 180.142 
154.512 150.857 182.845 154.512 150.336 182.429 154.512 150.046 181.827 
154.512 150.046 181.16 154.512 150.336 180.558 154.512 150.857 180.142 
154.972 151.048 182.845 155.341 150.679 182.429 155.546 150.474 181.827 
155.546 150.474 181.16 155.341 150.679 180.558 154.972 151.048 180.142 
108.5 59.5 104 108.5 59.5 101 109.151 59.5 103.851 
109.673 59.5 103.435 109.962 59.5 102.834 109.962 59.5 102.166 
109.673 59.5 101.565 109.151 59.5 101.149 108.96 59.9602 103.851 
109.329 60.3293 103.435 109.534 60.5341 102.834 109.534 60.5341 102.166 
109.329 60.3293 101.565 108.96 59.9602 101.149 108.5 60.1508 103.851 
108.5 60.6727 103.435 108.5 60.9624 102.834 108.5 60.9624 102.166 
108.5 60.6727 101.565 108.5 60.1508 101.149 108.04 59.9602 103.851 
107.671 60.3293 103.435 107.466 60.5341 102.834 107.466 60.5341 102.166 
107.671 60.3293 101.565 108.04 59.9602 101.149 107.849 59.5 103.851 
107.327 59.5 103.435 107.038 59.5 102.834 107.038 59.5 102.166 
107.327 59.5 101.565 107.849 59.5 101.149 108.04 59.0398 103.851 
107.671 58.6707 103.435 107.466 58.4659 102.834 107.466 58.4659 102.166 
107.671 58.6707 101.565 108.04 59.0398 101.149 108.5 58.8492 103.851 
108.5 58.3273 103.435 108.5 58.0376 102.834 108.5 58.0376 102.166 
108.5 58.3273 101.565 108.5 58.8492 101.149 108.96 59.0398 103.851 
109.329 58.6707 103.435 109.534 58.4659 102.834 109.534 58.4659 102.166 
109.329 58.6707 101.565 108.96 59.0398 101.149 147.5 92.5 59 
147.5 92.5 56 148.151 92.5 58.8515 148.673 92.5 58.4352 
148.962 92.5 57.8338 148.962 92.5 57.1662 148.673 92.5 56.5648 
148.151 92.5 56.1485 147.96 92.9602 58.8515 148.329 93.3293 58.4352 
148.534 93.5341 57.8338 148.534 93.5341 57.1662 148.329 93.3293 56.5648 
147.96 92.9602 56.1485 147.5 93.1508 58.8515 147.5 93.6727 58.4352 
147.5 93.9624 57.8338 147.5 93.9624 57.1662 147.5 93.6727 56.5648 
147.5 93.1508 56.1485 147.04 92.9602 58.8515 146.671 93.3293 58.4352 
146.466 93.5341 57.8338 146.466 93.5341 57.1662 146.671 93.3293 56.5648 
147.04 92.9602 56.1485 146.849 92.5 58.8515 146.327 92.5 58.4352 
146.038 92.5 57.8338 146.038 92.5 57.1662 146.327 92.5 56.5648 
146.849 92.5 56.1485 147.04 92.0398 58.8515 146.671 91.6707 58.4352 
146.466 91.4659 57.8338 146.466 91.4659 57.1662 146.671 91.6707 56.5648 
147.04 92.0398 56.1485 147.5 91.8492 58.8515 147.5 91.3273 58.4352 
147.5 91.0376 57.8338 147.5 91.0376 57.1662 147.5 91.3273 56.5648 
147.5 91.8492 56.1485 147.96 92.0398 58.8515 148.329 91.6707 58.4352 
148.534 91.4659 57.8338 148.534 91.4659 57.1662 148.329 91.6707 56.5648 
147.96 92.0398 56.1485 131 68 83.5 131 68 80.5 
131.651 68 83.3515 132.173 68 82.9352 132.462 68 82.3338 
132.462 68 81.6662 132.173 68 81.0648 131.651 68 80.6485 
131.46 68.4602 83.3515 131.829 68.8293 82.9352 132.034 69.0341 82.3338 
132.034 69.0341 81.6662 131.829 68.8293 81.0648 131.46 68.4602 80.6485 
131 68.6508 83.3515 131 69.1727 82.9352 131 69.4624 82.3338 
131 69.4624 81.6662 131 69.1727 81.0648 131 68.6508 80.6485 
130.54 68.4602 83.3515 130.171 68.8293 82.9352 129.966 69.0341 82.3338 
129.966 69.0341 81.6662 130.171 68.8293 81.0648 130.54 68.4602 80.6485 
130.349 68 83.3515 129.827 68 82.9352 129.538 68 82.3338 
129.538 68 81.6662 129.827 68 81.0648 130.349 68 80.6485 
130.54 67.5398 83.3515 130.171 67.1707 82.9352 129.966 66.9659 82.3338 
129.966 66.9659 81.6662 130.171 67.1707 81.0648 130.54 67.5398 80.6485 
131 67.3492 83.3515 131 66.8273 82.9352 131 66.5376 82.3338 
131 66.5376 81.6662 131 66.8273 81.0648 131 67.3492 80.6485 
131.46 67.5398 83.3515 131.829 67.1707 82.9352 132.034 66.9659 82.3338 
132.034 66.9659 81.6662 131.829 67.1707 81.0648 131.46 67.5398 80.6485 
33.5 117.5 233.5 33.5 117.5 230.5 34.1508 117.5 233.351 
34.6727 117.5 232.935 34.9624 117.5 232.334 34.9624 117.5 231.666 
34.6727 117.5 231.065 34.1508 117.5 230.649 33.9602 117.96 233.351 
34.3293 118.329 232.935 34.5341 118.534 232.334 34.5341 118.534 231.666 
34.3293 118.329 231.065 33.9602 117.96 230.649 33.5 118.151 233.351 
33.5 118.673 232.935 33.5 118.962 232.334 33.5 118.962 231.666 
33.5 118.673 231.065 33.5 118.151 230.649 33.0398 117.96 233.351 
32.6707 118.329 232.935 32.4659 118.534 232.334 32.4659 118.534 231.666 
32.6707 118.329 231.065 33.0398 117.96 230.649 32.8492 117.5 233.351 
32.3273 117.5 232.935 32.0376 117.5 232.334 32.0376 117.5 231.666 
32.3273 117.5 231.065 32.8492 117.5 230.649 33.0398 117.04 233.351 
32.6707 116.671 232.935 32.4659 116.466 232.334 32.4659 116.466 231.666 
32.6707 116.671 231.065 33.0398 117.04 230.649 33.5 116.849 233.351 
33.5 116.327 232.935 33.5 116.038 232.334 33.5 116.038 231.666 
33.5 116.327 231.065 33.5 116.849 230.649 33.9602 117.04 233.351 
34.3293 116.671 232.935 34.5341 116.466 232.334 34.5341 116.466 231.666 
34.3293 116.671 231.065 33.9602 117.04 230.649 35.5 103 242 
35.5 103 239 36.1508 103 241.851 36.6727 103 241.435 
36.9624 103 240.834 36.9624 103 240.166 36.6727 103 239.565 
36.1508 103 239.149 35.9602 103.46 241.851 36.3293 103.829 241.435 
36.5341 104.034 240.834 36.5341 104.034 240.166 36.3293 103.829 239.565 
35.9602 103.46 239.149 35.5 103.651 241.851 35.5 104.173 241.435 
35.5 104.462 240.834 35.5 104.462 240.166 35.5 104.173 239.565 
35.5 103.651 239.149 35.0398 103.46 241.851 34.6707 103.829 241.435 
34.4659 104.034 240.834 34.4659 104.034 240.166 34.6707 103.829 239.565 
35.0398 103.46 239.149 34.8492 103 241.851 34.3273 103 241.435 
34.0376 103 240.834 34.0376 103 240.166 34.3273 103 239.565 
34.8492 103 239.149 35.0398 102.54 241.851 34.6707 102.171 241.435 
34.4659 101.966 240.834 34.4659 101.966 240.166 34.6707 102.171 239.565 
35.0398 102.54 239.149 35.5 102.349 241.851 35.5 101.827 241.435 
35.5 101.538 240.834 35.5 101.538 240.166 35.5 101.827 239.565 
35.5 102.349 239.149 35.9602 102.54 241.851 36.3293 102.171 241.435 
36.5341 101.966 240.834 36.5341 101.966 240.166 36.3293 102.171 239.565 
35.9602 102.54 239.149 147.5 195 61.5 147.5 195 58.5 
148.151 195 61.3515 148.673 195 60.9352 148.962 195 60.3338 
148.962 195 59.6662 148.673 195 59.0648 148.151 195 58.6485 
147.96 195.46 61.3515 148.329 195.829 60.9352 148.534 196.034 60.3338 
148.534 196.034 59.6662 148.329 195.829 59.0648 147.96 195.46 58.6485 
147.5 195.651 61.3515 147.5 196.173 60.9352 147.5 196.462 60.3338 
147.5 196.462 59.6662 147.5 196.173 59.0648 147.5 195.651 58.6485 
147.04 195.46 61.3515 146.671 195.829 60.9352 146.466 196.034 60.3338 
146.466 196.034 59.6662 146.671 195.829 59.0648 147.04 195.46 58.6485 
146.849 195 61.3515 146.327 195 60.9352 146.038 195 60.3338 
146.038 195 59.6662 146.327 195 59.0648 146.849 195 58.6485 
147.04 194.54 61.3515 146.671 194.171 60.9352 146.466 193.966 60.3338 
146.466 193.966 59.6662 146.671 194.171 59.0648 147.04 194.54 58.6485 
147.5 194.349 61.3515 147.5 193.827 60.9352 147.5 193.538 60.3338 
[...]
POINT_DATA 1400
SCALARS scales float
LOOKUP_TABLE default
3 3 3 3 3 3 3 3 3 
3 3 3 3 3 3 3 3 3 
3 3 3 3 3 3 3 3 3 
3 3 3 3 3 3 3 3 3 
3 3 3 3 3 3 3 3 3 
3 3 3 3 3 3 3 3 3 
3 3 3 3 3 3 3 3 3 
3 3 3 3 3 3 3 3 3 
3 3 3 3 3 3 3 3 3 
3 3 3 3 3 3 3 3 3 
3 3 3 3 3 3 3 3 3 
3 3 3 3 3 3 3 3 3 
3 3 3 3 3 3 3 3 3 
3 3 3 3 3 3 3 3 3 
3 3 3 3 3 3 3 3 3 
3 3 3 3 3 3 3 3 3 
3 3 3 3 3 3 3 3 3 
3 3 3 3 3 3 3 3 3 
3 3 3 3 3 3 3 3 3 
3 3 3 3 3 3 3 3 3 
3 3 3 3 3 3 3 3 3 
3 3 3 3 3 3 3 3 3 
3 3 3 3 3 3 3 3 3 
3 3 3 3 3 3 3 3 3 
3 3 3 3 3 3 3 3 3 
3 3 3 3 3 3 3 3 3 
3 3 3 3 3 3 3 3 3 
3 3 3 3 3 3 3 3 3 
3 3 3 3 3 3 3 3 3 
3 3 3 3 3 3 3 3 3 
3 3 3 3 3 3 3 3 3 
3 3 3 3 3 3 3 3 3 
3 3 3 3 3 3 3 3 3 
3 3 3 3 3 3 3 3 3 
3 3 3 3 3 3 3 3 3 
3 3 3 3 3 3 3 3 3 
3 3 3 3 3 3 3 3 3 
3 3 3 3 3 3 3 3 3 
3 3 3 3 3 3 3 3 3 
3 3 3 3 3 3 3 3 3 
3 3 3 3 3 3 3 3 3 
3 3 3 3 3 3 3 3 3 
3 3 3 3 3 3 3 3 3 
3 3 3 3 3 3 3 3 3 
3 3 3 3 3 3 3 3 3 
3 3 3 3 3 3 3 3 3 
3 3 3 3 3 3 3 3 3 
3 3 3 3 3 3 3 3 3 
3 3 3 3 3 3 3 3 3 
3 3 3 3 3 3 3 3 3 
3 3 3 3 3 3 3 3 3 
3 3 3 3 3 3 3 3 3 
3 3 3 3 3 3 3 3 3 
3 3 3 3 3 3 3 3 3 
3 3 3 3 3 3 3 3 3 
3 3 3 3 3 3 3 3 3 
3 3 3 3 3 3 3 3 3 
3 3 3 3 3 3 3 3 3 
3 3 3 3 3 3 3 3 3 
3 3 3 3 3 3 3 3 3 
3 3 3 3 3 3 3 3 3 
3 3 3 3 3 3 3 3 3 
3 3 3 3 3 3 3 3 3 
3 3 3 3 3 3 3 3 3 
3 3 3 3 3 3 3 3 3 
3 3 3 3 3 3 3 3 3 
3 3 3 3 3 3 3 3 3 
3 3 3 3 3 3 3 3 3 
3 3 3 3 3 3 3 3 3 
3 3 3 3 3 3 3 3 3 
3 3 3 3 3 3 3 3 3 
3 3 3 3 3 3 3 3 3 
3 3 3 3 3 3 3 3 3 
3 3 3 3 3 3 3 3 3 
3 3 3 3 3 3 3 3 3 
3 3 3 3 3 3 3 3 3 
3 3 3 3 3 3 3 3 3 
3 3 3 3 3 3 3 3 3 
3 3 3 3 3 3 3 3 3 
3 3 3 3 3 3 3 3 3 
3 3 3 3 3 3 3 3 3 
3 3 3 3 3 3 3 3 3 
3 3 3 3 3 3 3 3 3 
3 3 3 3 3 3 3 3 3 
3 3 3 3 3 3 3 3 3 
3 3 3 3 3 3 3 3 3 
3 3 3 3 3 3 3 3 3 
3 3 3 3 3 3 3 3 3 
3 3 3 3 3 3 3 3 3 
3 3 3 3 3 3 3 3 3 
3 3 3 3 3 3 3 3 3 
3 3 3 3 3 3 3 3 3 
3 3 3 3 3 3 3 3 3 
3 3 3 3 3 3 3 3 3 
3 3 3 3 3 3 3 3 3 
3 3 3 3 3 3 3 3 3 
3 3 3 3 3 3 3 3 3 
3 3 3 3 3 3 3 3 3 
3 3 3 3 3 3 3 3 3 
3 3 3 3 3 3 3 3 3 
3 3 3 3 3 3 3 3 3 
3 3 3 3 3 3 3 3 3 
3 3 3 3 3 3 3 3 3 
3 3 3 3 3 3 3 3 3 
3 3 3 3 3 3 3 3 3 
3 3 3 3 3 3 3 3 3 
3 3 3 3 3 3 3 3 3 
3 3 3 3 3 3 3 3 3 
3 3 3 3 3 3 3 3 3 
3 3 3 3 3 3 3 3 3 
3 3 3 3 3 3 3 3 3 
3 3 3 3 3 3 3 3 3 
3 3 3 3 3 3 3 3 3 
3 3 3 3 3 3 3 3 3 
3 3 3 3 3 3 3 3 3 
3 3 3 3 3 3 3 3 3 
3 3 3 3 3 3 3 3 3 
3 3 3 3 3 3 3 3 3 
3 3 3 3 3 3 3 3 3 
3 3 3 3 3 3 3 3 3 
3 3 3 3 3 3 3 3 3 
3 3 3 3 3 3 3 3 3 
3 3 3 3 3 3 3 3 3 
3 3 3 3 3 3 3 3 3 
3 3 3 3 3 3 3 3 3 
3 3 3 3 3 3 3 3 3 
3 3 3 3 3 3 3 3 3 
3 3 3 3 3 3 3 3 3 
3 3 3 3 3 3 3 3 3 
3 3 3 3 3 3 3 3 3 
3 3 3 3 3 3 3 3 3 
3 3 3 3 3 3 3 3 3 
3 3 3 3 3 3 3 3 3 
3 3 3 3 3 3 3 3 3 
3 3 3 3 3 3 3 3 3 
3 3 3 3 3 3 3 3 3 
3 3 3 3 3 3 3 3 3 
3 3 3 3 3 3 3 3 3 
3 3 3 3 3 3 3 3 3 
3 3 3 3 3 3 3 3 3 
3 3 3 3 3 3 3 3 3 
3 3 3 3 3 3 3 3 3 
3 3 3 3 3 3 3 3 3 
3 3 3 3 3 3 3 3 3 
3 3 3 3 3 3 3 3 3 
3 3 3 3 3 3 3 3 3 
3 3 3 3 3 3 3 3 3 
3 3 3 3 3 3 3 3 3 
3 3 3 3 3 3 3 3 3 
3 3 3 3 3 3 3 3 3 
3 3 3 3 3 3 3 3 3 
3 3 3 3 3 3 3 3 3 
3 3 3 3 3 3 3 3 3 
3 3 3 3 3 3 3 3 3 
3 3 3 3 3 3 3 3 3 
3 3 3 3 3 
NORMALS Normals float
0 0 1 0 0 -1 0.433884 0 0.900969 
0.781831 0 0.62349 0.974928 0 0.222521 0.974928 0 -0.222521 
0.781831 0 -0.62349 0.433884 0 -0.900969 0.306802 0.306802 0.900969 
0.552838 0.552838 0.62349 0.689378 0.689378 0.222521 0.689378 0.689378 -0.222521 
0.552838 0.552838 -0.62349 0.306802 0.306802 -0.900969 2.65677e-017 0.433884 0.900969 
4.78734e-017 0.781831 0.62349 5.96971e-017 0.974928 0.222521 5.96971e-017 0.974928 -0.222521 
4.78734e-017 0.781831 -0.62349 2.65677e-017 0.433884 -0.900969 -0.306802 0.306802 0.900969 
-0.552838 0.552838 0.62349 -0.689378 0.689378 0.222521 -0.689378 0.689378 -0.222521 
-0.552838 0.552838 -0.62349 -0.306802 0.306802 -0.900969 -0.433884 5.31354e-017 0.900969 
-0.781831 9.57467e-017 0.62349 -0.974928 1.19394e-016 0.222521 -0.974928 1.19394e-016 -0.222521 
-0.781831 9.57467e-017 -0.62349 -0.433884 5.31354e-017 -0.900969 -0.306802 -0.306802 0.900969 
-0.552838 -0.552838 0.62349 -0.689378 -0.689378 0.222521 -0.689378 -0.689378 -0.222521 
-0.552838 -0.552838 -0.62349 -0.306802 -0.306802 -0.900969 -7.97032e-017 -0.433884 0.900969 
-1.4362e-016 -0.781831 0.62349 -1.79091e-016 -0.974928 0.222521 -1.79091e-016 -0.974928 -0.222521 
-1.4362e-016 -0.781831 -0.62349 -7.97032e-017 -0.433884 -0.900969 0.306802 -0.306802 0.900969 
0.552838 -0.552838 0.62349 0.689378 -0.689378 0.222521 0.689378 -0.689378 -0.222521 
0.552838 -0.552838 -0.62349 0.306802 -0.306802 -0.900969 0 0 1 
0 0 -1 0.433884 0 0.900969 0.781831 0 0.62349 
0.974928 0 0.222521 0.974928 0 -0.222521 0.781831 0 -0.62349 
0.433884 0 -0.900969 0.306802 0.306802 0.900969 0.552838 0.552838 0.62349 
0.689378 0.689378 0.222521 0.689378 0.689378 -0.222521 0.552838 0.552838 -0.62349 
0.306802 0.306802 -0.900969 2.65677e-017 0.433884 0.900969 4.78734e-017 0.781831 0.62349 
5.96971e-017 0.974928 0.222521 5.96971e-017 0.974928 -0.222521 4.78734e-017 0.781831 -0.62349 
2.65677e-017 0.433884 -0.900969 -0.306802 0.306802 0.900969 -0.552838 0.552838 0.62349 
-0.689378 0.689378 0.222521 -0.689378 0.689378 -0.222521 -0.552838 0.552838 -0.62349 
-0.306802 0.306802 -0.900969 -0.433884 5.31354e-017 0.900969 -0.781831 9.57467e-017 0.62349 
-0.974928 1.19394e-016 0.222521 -0.974928 1.19394e-016 -0.222521 -0.781831 9.57467e-017 -0.62349 
-0.433884 5.31354e-017 -0.900969 -0.306802 -0.306802 0.900969 -0.552838 -0.552838 0.62349 
-0.689378 -0.689378 0.222521 -0.689378 -0.689378 -0.222521 -0.552838 -0.552838 -0.62349 
-0.306802 -0.306802 -0.900969 -7.97032e-017 -0.433884 0.900969 -1.4362e-016 -0.781831 0.62349 
-1.79091e-016 -0.974928 0.222521 -1.79091e-016 -0.974928 -0.222521 -1.4362e-016 -0.781831 -0.62349 
-7.97032e-017 -0.433884 -0.900969 0.306802 -0.306802 0.900969 0.552838 -0.552838 0.62349 
0.689378 -0.689378 0.222521 0.689378 -0.689378 -0.222521 0.552838 -0.552838 -0.62349 
0.306802 -0.306802 -0.900969 0 0 1 0 0 -1 
0.433884 0 0.900969 0.781831 0 0.62349 0.974928 0 0.222521 
0.974928 0 -0.222521 0.781831 0 -0.62349 0.433884 0 -0.900969 
0.306802 0.306802 0.900969 0.552838 0.552838 0.62349 0.689378 0.689378 0.222521 
0.689378 0.689378 -0.222521 0.552838 0.552838 -0.62349 0.306802 0.306802 -0.900969 
2.65677e-017 0.433884 0.900969 4.78734e-017 0.781831 0.62349 5.96971e-017 0.974928 0.222521 
5.96971e-017 0.974928 -0.222521 4.78734e-017 0.781831 -0.62349 2.65677e-017 0.433884 -0.900969 
-0.306802 0.306802 0.900969 -0.552838 0.552838 0.62349 -0.689378 0.689378 0.222521 
-0.689378 0.689378 -0.222521 -0.552838 0.552838 -0.62349 -0.306802 0.306802 -0.900969 
-0.433884 5.31354e-017 0.900969 -0.781831 9.57467e-017 0.62349 -0.974928 1.19394e-016 0.222521 
-0.974928 1.19394e-016 -0.222521 -0.781831 9.57467e-017 -0.62349 -0.433884 5.31354e-017 -0.900969 
-0.306802 -0.306802 0.900969 -0.552838 -0.552838 0.62349 -0.689378 -0.689378 0.222521 
-0.689378 -0.689378 -0.222521 -0.552838 -0.552838 -0.62349 -0.306802 -0.306802 -0.900969 
-7.97032e-017 -0.433884 0.900969 -1.4362e-016 -0.781831 0.62349 -1.79091e-016 -0.974928 0.222521 
-1.79091e-016 -0.974928 -0.222521 -1.4362e-016 -0.781831 -0.62349 -7.97032e-017 -0.433884 -0.900969 
0.306802 -0.306802 0.900969 0.552838 -0.552838 0.62349 0.689378 -0.689378 0.222521 
0.689378 -0.689378 -0.222521 0.552838 -0.552838 -0.62349 0.306802 -0.306802 -0.900969 
0 0 1 0 0 -1 0.433884 0 0.900969 
0.781831 0 0.62349 0.974928 0 0.222521 0.974928 0 -0.222521 
0.781831 0 -0.62349 0.433884 0 -0.900969 0.306802 0.306802 0.900969 
0.552838 0.552838 0.62349 0.689378 0.689378 0.222521 0.689378 0.689378 -0.222521 
0.552838 0.552838 -0.62349 0.306802 0.306802 -0.900969 2.65677e-017 0.433884 0.900969 
4.78734e-017 0.781831 0.62349 5.96971e-017 0.974928 0.222521 5.96971e-017 0.974928 -0.222521 
4.78734e-017 0.781831 -0.62349 2.65677e-017 0.433884 -0.900969 -0.306802 0.306802 0.900969 
-0.552838 0.552838 0.62349 -0.689378 0.689378 0.222521 -0.689378 0.689378 -0.222521 
-0.552838 0.552838 -0.62349 -0.306802 0.306802 -0.900969 -0.433884 5.31354e-017 0.900969 
-0.781831 9.57467e-017 0.62349 -0.974928 1.19394e-016 0.222521 -0.974928 1.19394e-016 -0.222521 
-0.781831 9.57467e-017 -0.62349 -0.433884 5.31354e-017 -0.900969 -0.306802 -0.306802 0.900969 
-0.552838 -0.552838 0.62349 -0.689378 -0.689378 0.222521 -0.689378 -0.689378 -0.222521 
-0.552838 -0.552838 -0.62349 -0.306802 -0.306802 -0.900969 -7.97032e-017 -0.433884 0.900969 
-1.4362e-016 -0.781831 0.62349 -1.79091e-016 -0.974928 0.222521 -1.79091e-016 -0.974928 -0.222521 
-1.4362e-016 -0.781831 -0.62349 -7.97032e-017 -0.433884 -0.900969 0.306802 -0.306802 0.900969 
0.552838 -0.552838 0.62349 0.689378 -0.689378 0.222521 0.689378 -0.689378 -0.222521 
0.552838 -0.552838 -0.62349 0.306802 -0.306802 -0.900969 0 0 1 
0 0 -1 0.433884 0 0.900969 0.781831 0 0.62349 
0.974928 0 0.222521 0.974928 0 -0.222521 0.781831 0 -0.62349 
0.433884 0 -0.900969 0.306802 0.306802 0.900969 0.552838 0.552838 0.62349 
0.689378 0.689378 0.222521 0.689378 0.689378 -0.222521 0.552838 0.552838 -0.62349 
0.306802 0.306802 -0.900969 2.65677e-017 0.433884 0.900969 4.78734e-017 0.781831 0.62349 
5.96971e-017 0.974928 0.222521 5.96971e-017 0.974928 -0.222521 4.78734e-017 0.781831 -0.62349 
2.65677e-017 0.433884 -0.900969 -0.306802 0.306802 0.900969 -0.552838 0.552838 0.62349 
-0.689378 0.689378 0.222521 -0.689378 0.689378 -0.222521 -0.552838 0.552838 -0.62349 
-0.306802 0.306802 -0.900969 -0.433884 5.31354e-017 0.900969 -0.781831 9.57467e-017 0.62349 
-0.974928 1.19394e-016 0.222521 -0.974928 1.19394e-016 -0.222521 -0.781831 9.57467e-017 -0.62349 
-0.433884 5.31354e-017 -0.900969 -0.306802 -0.306802 0.900969 -0.552838 -0.552838 0.62349 
-0.689378 -0.689378 0.222521 -0.689378 -0.689378 -0.222521 -0.552838 -0.552838 -0.62349 
-0.306802 -0.306802 -0.900969 -7.97032e-017 -0.433884 0.900969 -1.4362e-016 -0.781831 0.62349 
-1.79091e-016 -0.974928 0.222521 -1.79091e-016 -0.974928 -0.222521 -1.4362e-016 -0.781831 -0.62349 
-7.97032e-017 -0.433884 -0.900969 0.306802 -0.306802 0.900969 0.552838 -0.552838 0.62349 
0.689378 -0.689378 0.222521 0.689378 -0.689378 -0.222521 0.552838 -0.552838 -0.62349 
0.306802 -0.306802 -0.900969 0 0 1 0 0 -1 
0.433884 0 0.900969 0.781831 0 0.62349 0.974928 0 0.222521 
0.974928 0 -0.222521 0.781831 0 -0.62349 0.433884 0 -0.900969 
0.306802 0.306802 0.900969 0.552838 0.552838 0.62349 0.689378 0.689378 0.222521 
0.689378 0.689378 -0.222521 0.552838 0.552838 -0.62349 0.306802 0.306802 -0.900969 
2.65677e-017 0.433884 0.900969 4.78734e-017 0.781831 0.62349 5.96971e-017 0.974928 0.222521 
5.96971e-017 0.974928 -0.222521 4.78734e-017 0.781831 -0.62349 2.65677e-017 0.433884 -0.900969 
-0.306802 0.306802 0.900969 -0.552838 0.552838 0.62349 -0.689378 0.689378 0.222521 
-0.689378 0.689378 -0.222521 -0.552838 0.552838 -0.62349 -0.306802 0.306802 -0.900969 
-0.433884 5.31354e-017 0.900969 -0.781831 9.57467e-017 0.62349 -0.974928 1.19394e-016 0.222521 
-0.974928 1.19394e-016 -0.222521 -0.781831 9.57467e-017 -0.62349 -0.433884 5.31354e-017 -0.900969 
-0.306802 -0.306802 0.900969 -0.552838 -0.552838 0.62349 -0.689378 -0.689378 0.222521 
-0.689378 -0.689378 -0.222521 -0.552838 -0.552838 -0.62349 -0.306802 -0.306802 -0.900969 
-7.97032e-017 -0.433884 0.900969 -1.4362e-016 -0.781831 0.62349 -1.79091e-016 -0.974928 0.222521 
-1.79091e-016 -0.974928 -0.222521 -1.4362e-016 -0.781831 -0.62349 -7.97032e-017 -0.433884 -0.900969 
0.306802 -0.306802 0.900969 0.552838 -0.552838 0.62349 0.689378 -0.689378 0.222521 
0.689378 -0.689378 -0.222521 0.552838 -0.552838 -0.62349 0.306802 -0.306802 -0.900969 
0 0 1 0 0 -1 0.433884 0 0.900969 
0.781831 0 0.62349 0.974928 0 0.222521 0.974928 0 -0.222521 
0.781831 0 -0.62349 0.433884 0 -0.900969 0.306802 0.306802 0.900969 
0.552838 0.552838 0.62349 0.689378 0.689378 0.222521 0.689378 0.689378 -0.222521 
0.552838 0.552838 -0.62349 0.306802 0.306802 -0.900969 2.65677e-017 0.433884 0.900969 
4.78734e-017 0.781831 0.62349 5.96971e-017 0.974928 0.222521 5.96971e-017 0.974928 -0.222521 
4.78734e-017 0.781831 -0.62349 2.65677e-017 0.433884 -0.900969 -0.306802 0.306802 0.900969 
-0.552838 0.552838 0.62349 -0.689378 0.689378 0.222521 -0.689378 0.689378 -0.222521 
-0.552838 0.552838 -0.62349 -0.306802 0.306802 -0.900969 -0.433884 5.31354e-017 0.900969 
-0.781831 9.57467e-017 0.62349 -0.974928 1.19394e-016 0.222521 -0.974928 1.19394e-016 -0.222521 
-0.781831 9.57467e-017 -0.62349 -0.433884 5.31354e-017 -0.900969 -0.306802 -0.306802 0.900969 
-0.552838 -0.552838 0.62349 -0.689378 -0.689378 0.222521 -0.689378 -0.689378 -0.222521 
-0.552838 -0.552838 -0.62349 -0.306802 -0.306802 -0.900969 -7.97032e-017 -0.433884 0.900969 
-1.4362e-016 -0.781831 0.62349 -1.79091e-016 -0.974928 0.222521 -1.79091e-016 -0.974928 -0.222521 
-1.4362e-016 -0.781831 -0.62349 -7.97032e-017 -0.433884 -0.900969 0.306802 -0.306802 0.900969 
0.552838 -0.552838 0.62349 0.689378 -0.689378 0.222521 0.689378 -0.689378 -0.222521 
0.552838 -0.552838 -0.62349 0.306802 -0.306802 -0.900969 0 0 1 
0 0 -1 0.433884 0 0.900969 0.781831 0 0.62349 
0.974928 0 0.222521 0.974928 0 -0.222521 0.781831 0 -0.62349 
0.433884 0 -0.900969 0.306802 0.306802 0.900969 0.552838 0.552838 0.62349 
0.689378 0.689378 0.222521 0.689378 0.689378 -0.222521 0.552838 0.552838 -0.62349 
0.306802 0.306802 -0.900969 2.65677e-017 0.433884 0.900969 4.78734e-017 0.781831 0.62349 
5.96971e-017 0.974928 0.222521 5.96971e-017 0.974928 -0.222521 4.78734e-017 0.781831 -0.62349 
2.65677e-017 0.433884 -0.900969 -0.306802 0.306802 0.900969 -0.552838 0.552838 0.62349 
-0.689378 0.689378 0.222521 -0.689378 0.689378 -0.222521 -0.552838 0.552838 -0.62349 
-0.306802 0.306802 -0.900969 -0.433884 5.31354e-017 0.900969 -0.781831 9.57467e-017 0.62349 
-0.974928 1.19394e-016 0.222521 -0.974928 1.19394e-016 -0.222521 -0.781831 9.57467e-017 -0.62349 
-0.433884 5.31354e-017 -0.900969 -0.306802 -0.306802 0.900969 -0.552838 -0.552838 0.62349 
-0.689378 -0.689378 0.222521 -0.689378 -0.689378 -0.222521 -0.552838 -0.552838 -0.62349 
-0.306802 -0.306802 -0.900969 -7.97032e-017 -0.433884 0.900969 -1.4362e-016 -0.781831 0.62349 
-1.79091e-016 -0.974928 0.222521 -1.79091e-016 -0.974928 -0.222521 -1.4362e-016 -0.781831 -0.62349 
-7.97032e-017 -0.433884 -0.900969 0.306802 -0.306802 0.900969 0.552838 -0.552838 0.62349 
0.689378 -0.689378 0.222521 0.689378 -0.689378 -0.222521 0.552838 -0.552838 -0.62349 
0.306802 -0.306802 -0.900969 0 0 1 0 0 -1 
0.433884 0 0.900969 0.781831 0 0.62349 0.974928 0 0.222521 
0.974928 0 -0.222521 0.781831 0 -0.62349 0.433884 0 -0.900969 
0.306802 0.306802 0.900969 0.552838 0.552838 0.62349 0.689378 0.689378 0.222521 
0.689378 0.689378 -0.222521 0.552838 0.552838 -0.62349 0.306802 0.306802 -0.900969 
2.65677e-017 0.433884 0.900969 4.78734e-017 0.781831 0.62349 5.96971e-017 0.974928 0.222521 
5.96971e-017 0.974928 -0.222521 4.78734e-017 0.781831 -0.62349 2.65677e-017 0.433884 -0.900969 
-0.306802 0.306802 0.900969 -0.552838 0.552838 0.62349 -0.689378 0.689378 0.222521 
-0.689378 0.689378 -0.222521 -0.552838 0.552838 -0.62349 -0.306802 0.306802 -0.900969 
-0.433884 5.31354e-017 0.900969 -0.781831 9.57467e-017 0.62349 -0.974928 1.19394e-016 0.222521 
-0.974928 1.19394e-016 -0.222521 -0.781831 9.57467e-017 -0.62349 -0.433884 5.31354e-017 -0.900969 
-0.306802 -0.306802 0.900969 -0.552838 -0.552838 0.62349 -0.689378 -0.689378 0.222521 
-0.689378 -0.689378 -0.222521 -0.552838 -0.552838 -0.62349 -0.306802 -0.306802 -0.900969 
-7.97032e-017 -0.433884 0.900969 -1.4362e-016 -0.781831 0.62349 -1.79091e-016 -0.974928 0.222521 
-1.79091e-016 -0.974928 -0.222521 -1.4362e-016 -0.781831 -0.62349 -7.97032e-017 -0.433884 -0.900969 
0.306802 -0.306802 0.900969 0.552838 -0.552838 0.62349 0.689378 -0.689378 0.222521 
0.689378 -0.689378 -0.222521 0.552838 -0.552838 -0.62349 0.306802 -0.306802 -0.900969 
0 0 1 0 0 -1 0.433884 0 0.900969 
0.781831 0 0.62349 0.974928 0 0.222521 0.974928 0 -0.222521 
0.781831 0 -0.62349 0.433884 0 -0.900969 0.306802 0.306802 0.900969 
0.552838 0.552838 0.62349 0.689378 0.689378 0.222521 0.689378 0.689378 -0.222521 
0.552838 0.552838 -0.62349 0.306802 0.306802 -0.900969 2.65677e-017 0.433884 0.900969 
4.78734e-017 0.781831 0.62349 5.96971e-017 0.974928 0.222521 5.96971e-017 0.974928 -0.222521 
4.78734e-017 0.781831 -0.62349 2.65677e-017 0.433884 -0.900969 -0.306802 0.306802 0.900969 
-0.552838 0.552838 0.62349 -0.689378 0.689378 0.222521 -0.689378 0.689378 -0.222521 
-0.552838 0.552838 -0.62349 -0.306802 0.306802 -0.900969 -0.433884 5.31354e-017 0.900969 
-0.781831 9.57467e-017 0.62349 -0.974928 1.19394e-016 0.222521 -0.974928 1.19394e-016 -0.222521 
-0.781831 9.57467e-017 -0.62349 -0.433884 5.31354e-017 -0.900969 -0.306802 -0.306802 0.900969 
-0.552838 -0.552838 0.62349 -0.689378 -0.689378 0.222521 -0.689378 -0.689378 -0.222521 
-0.552838 -0.552838 -0.62349 -0.306802 -0.306802 -0.900969 -7.97032e-017 -0.433884 0.900969 
-1.4362e-016 -0.781831 0.62349 -1.79091e-016 -0.974928 0.222521 -1.79091e-016 -0.974928 -0.222521 
-1.4362e-016 -0.781831 -0.62349 -7.97032e-017 -0.433884 -0.900969 0.306802 -0.306802 0.900969 
0.552838 -0.552838 0.62349 0.689378 -0.689378 0.222521 0.689378 -0.689378 -0.222521 
0.552838 -0.552838 -0.62349 0.306802 -0.306802 -0.900969 0 0 1 
0 0 -1 0.433884 0 0.900969 0.781831 0 0.62349 
0.974928 0 0.222521 0.974928 0 -0.222521 0.781831 0 -0.62349 
0.433884 0 -0.900969 0.306802 0.306802 0.900969 0.552838 0.552838 0.62349 
0.689378 0.689378 0.222521 0.689378 0.689378 -0.222521 0.552838 0.552838 -0.62349 
0.306802 0.306802 -0.900969 2.65677e-017 0.433884 0.900969 4.78734e-017 0.781831 0.62349 
5.96971e-017 0.974928 0.222521 5.96971e-017 0.974928 -0.222521 4.78734e-017 0.781831 -0.62349 
2.65677e-017 0.433884 -0.900969 -0.306802 0.306802 0.900969 -0.552838 0.552838 0.62349 
-0.689378 0.689378 0.222521 -0.689378 0.689378 -0.222521 -0.552838 0.552838 -0.62349 
-0.306802 0.306802 -0.900969 -0.433884 5.31354e-017 0.900969 -0.781831 9.57467e-017 0.62349 
-0.974928 1.19394e-016 0.222521 -0.974928 1.19394e-016 -0.222521 -0.781831 9.57467e-017 -0.62349 
-0.433884 5.31354e-017 -0.900969 -0.306802 -0.306802 0.900969 -0.552838 -0.552838 0.62349 
-0.689378 -0.689378 0.222521 -0.689378 -0.689378 -0.222521 -0.552838 -0.552838 -0.62349 
-0.306802 -0.306802 -0.900969 -7.97032e-017 -0.433884 0.900969 -1.4362e-016 -0.781831 0.62349 
-1.79091e-016 -0.974928 0.222521 -1.79091e-016 -0.974928 -0.222521 -1.4362e-016 -0.781831 -0.62349 
-7.97032e-017 -0.433884 -0.900969 0.306802 -0.306802 0.900969 0.552838 -0.552838 0.62349 
0.689378 -0.689378 0.222521 0.689378 -0.689378 -0.222521 0.552838 -0.552838 -0.62349 
0.306802 -0.306802 -0.900969 0 0 1 0 0 -1 
0.433884 0 0.900969 0.781831 0 0.62349 0.974928 0 0.222521 
0.974928 0 -0.222521 0.781831 0 -0.62349 0.433884 0 -0.900969 
0.306802 0.306802 0.900969 0.552838 0.552838 0.62349 0.689378 0.689378 0.222521 
0.689378 0.689378 -0.222521 0.552838 0.552838 -0.62349 0.306802 0.306802 -0.900969 
2.65677e-017 0.433884 0.900969 4.78734e-017 0.781831 0.62349 5.96971e-017 0.974928 0.222521 
5.96971e-017 0.974928 -0.222521 4.78734e-017 0.781831 -0.62349 2.65677e-017 0.433884 -0.900969 
-0.306802 0.306802 0.900969 -0.552838 0.552838 0.62349 -0.689378 0.689378 0.222521 
-0.689378 0.689378 -0.222521 -0.552838 0.552838 -0.62349 -0.306802 0.306802 -0.900969 
-0.433884 5.31354e-017 0.900969 -0.781831 9.57467e-017 0.62349 -0.974928 1.19394e-016 0.222521 
-0.974928 1.19394e-016 -0.222521 -0.781831 9.57467e-017 -0.62349 -0.433884 5.31354e-017 -0.900969 
-0.306802 -0.306802 0.900969 -0.552838 -0.552838 0.62349 -0.689378 -0.689378 0.222521 
-0.689378 -0.689378 -0.222521 -0.552838 -0.552838 -0.62349 -0.306802 -0.306802 -0.900969 
-7.97032e-017 -0.433884 0.900969 -1.4362e-016 -0.781831 0.62349 -1.79091e-016 -0.974928 0.222521 
-1.79091e-016 -0.974928 -0.222521 -1.4362e-016 -0.781831 -0.62349 -7.97032e-017 -0.433884 -0.900969 
0.306802 -0.306802 0.900969 0.552838 -0.552838 0.62349 0.689378 -0.689378 0.222521 
0.689378 -0.689378 -0.222521 0.552838 -0.552838 -0.62349 0.306802 -0.306802 -0.900969 
0 0 1 0 0 -1 0.433884 0 0.900969 
0.781831 0 0.62349 0.974928 0 0.222521 0.974928 0 -0.222521 