# vtk DataFile Version 3.0
vtk output
ASCII
DATASET POLYDATA
POINTS 150 float
59.5 85.5 155.5 59.5 85.5 152.5 60.1508 85.5 155.351 
60.6727 85.5 154.935 60.9624 85.5 154.334 60.9624 85.5 153.666 
60.6727 85.5 153.065 60.1508 85.5 152.649 59.9602 85.9602 155.351 
60.3293 86.3293 154.935 60.5341 86.5341 154.334 60.5341 86.5341 153.666 
60.3293 86.3293 153.065 59.9602 85.9602 152.649 59.5 86.1508 155.351 
59.5 86.6727 154.935 59.5 86.9624 154.334 59.5 86.9624 153.666 
59.5 86.6727 153.065 59.5 86.1508 152.649 59.0398 85.9602 155.351 
58.6707 86.3293 154.935 58.4659 86.5341 154.334 58.4659 86.5341 153.666 
58.6707 86.3293 153.065 59.0398 85.9602 152.649 58.8492 85.5 155.351 
58.3273 85.5 154.935 58.0376 85.5 154.334 58.0376 85.5 153.666 
58.3273 85.5 153.065 58.8492 85.5 152.649 59.0398 85.0398 155.351 
58.6707 84.6707 154.935 58.4659 84.4659 154.334 58.4659 84.4659 153.666 
58.6707 84.6707 153.065 59.0398 85.0398 152.649 59.5 84.8492 155.351 
59.5 84.3273 154.935 59.5 84.0376 154.334 59.5 84.0376 153.666 
59.5 84.3273 153.065 59.5 84.8492 152.649 59.9602 85.0398 155.351 
60.3293 84.6707 154.935 60.5341 84.4659 154.334 60.5341 84.4659 153.666 
60.3293 84.6707 153.065 59.9602 85.0398 152.649 134.5 222.5 78.5 
134.5 222.5 75.5 135.151 222.5 78.3515 135.673 222.5 77.9352 
135.962 222.5 77.3338 135.962 222.5 76.6662 135.673 222.5 76.0648 
135.151 222.5 75.6485 134.96 222.96 78.3515 135.329 223.329 77.9352 
135.534 223.534 77.3338 135.534 223.534 76.6662 135.329 223.329 76.0648 
134.96 222.96 75.6485 134.5 223.151 78.3515 134.5 223.673 77.9352 
134.5 223.962 77.3338 134.5 223.962 76.6662 134.5 223.673 76.0648 
134.5 223.151 75.6485 134.04 222.96 78.3515 133.671 223.329 77.9352 
133.466 223.534 77.3338 133.466 223.534 76.6662 133.671 223.329 76.0648 
134.04 222.96 75.6485 133.849 222.5 78.3515 133.327 222.5 77.9352 
133.038 222.5 77.3338 133.038 222.5 76.6662 133.327 222.5 76.0648 
133.849 222.5 75.6485 134.04 222.04 78.3515 133.671 221.671 77.9352 
133.466 221.466 77.3338 133.466 221.466 76.6662 133.671 221.671 76.0648 
134.04 222.04 75.6485 134.5 221.849 78.3515 134.5 221.327 77.9352 
134.5 221.038 77.3338 134.5 221.038 76.6662 134.5 221.327 76.0648 
134.5 221.849 75.6485 134.96 222.04 78.3515 135.329 221.671 77.9352 
135.534 221.466 77.3338 135.534 221.466 76.6662 135.329 221.671 76.0648 
134.96 222.04 75.6485 149.5 220 96 149.5 220 93 
150.151 220 95.8515 150.673 220 95.4352 150.962 220 94.8338 
150.962 220 94.1662 150.673 220 93.5648 150.151 220 93.1485 
149.96 220.46 95.8515 150.329 220.829 95.4352 150.534 221.034 94.8338 
150.534 221.034 94.1662 150.329 220.829 93.5648 149.96 220.46 93.1485 
149.5 220.651 95.8515 149.5 221.173 95.4352 149.5 221.462 94.8338 
149.5 221.462 94.1662 149.5 221.173 93.5648 149.5 220.651 93.1485 
149.04 220.46 95.8515 148.671 220.829 95.4352 148.466 221.034 94.8338 
148.466 221.034 94.1662 148.671 220.829 93.5648 149.04 220.46 93.1485 
148.849 220 95.8515 148.327 220 95.4352 148.038 220 94.8338 
148.038 220 94.1662 148.327 220 93.5648 148.849 220 93.1485 
149.04 219.54 95.8515 148.671 219.171 95.4352 148.466 218.966 94.8338 
148.466 218.966 94.1662 148.671 219.171 93.5648 149.04 219.54 93.1485 
149.5 219.349 95.8515 149.5 218.827 95.4352 149.5 218.538 94.8338 
149.5 218.538 94.1662 149.5 218.827 93.5648 149.5 219.349 93.1485 
149.96 219.54 95.8515 150.329 219.171 95.4352 150.534 218.966 94.8338 
150.534 218.966 94.1662 150.329 219.171 93.5648 149.96 219.54 93.1485 

POLYGONS 288 1152
3 2 8 0 
3 8 14 0 
3 14 20 0 
3 20 26 0 
3 26 32 0 
3 32 38 0 
3 38 44 0 
3 44 2 0 
3 7 1 13 
3 13 1 19 
3 19 1 25 
3 25 1 31 
3 31 1 37 
3 37 1 43 
3 43 1 49 
3 49 1 7 
3 2 3 9 
3 2 9 8 
3 3 4 10 
3 3 10 9 
3 4 5 11 
3 4 11 10 
3 5 6 12 
3 5 12 11 
3 6 7 13 
3 6 13 12 
3 8 9 15 
3 8 15 14 
3 9 10 16 
3 9 16 15 
3 10 11 17 
3 10 17 16 
3 11 12 18 
3 11 18 17 
3 12 13 19 
3 12 19 18 
3 14 15 21 
3 14 21 20 
3 15 16 22 
3 15 22 21 
3 16 17 23 
3 16 23 22 
3 17 18 24 
3 17 24 23 
3 18 19 25 
3 18 25 24 
3 20 21 27 
3 20 27 26 
3 21 22 28 
3 21 28 27 
3 22 23 29 
3 22 29 28 
3 23 24 30 
3 23 30 29 
3 24 25 31 
3 24 31 30 
3 26 27 33 
3 26 33 32 
3 27 28 34 
3 27 34 33 
3 28 29 35 
3 28 35 34 
3 29 30 36 
3 29 36 35 
3 30 31 37 
3 30 37 36 
3 32 33 39 
3 32 39 38 
3 33 34 40 
3 33 40 39 
3 34 35 41 
3 34 41 40 
3 35 36 42 
3 35 42 41 
3 36 37 43 
3 36 43 42 
3 38 39 45 
3 38 45 44 
3 39 40 46 
3 39 46 45 
3 40 41 47 
3 40 47 46 
3 41 42 48 
3 41 48 47 
3 42 43 49 
3 42 49 48 
3 44 45 3 
3 44 3 2 
3 45 46 4 
3 45 4 3 
3 46 47 5 
3 46 5 4 
3 47 48 6 
3 47 6 5 
3 48 49 7 
3 48 7 6 
3 52 58 50 
3 58 64 50 
3 64 70 50 
3 70 76 50 
3 76 82 50 
3 82 88 50 
3 88 94 50 
3 94 52 50 
3 57 51 63 
3 63 51 69 
3 69 51 75 
3 75 51 81 
3 81 51 87 
3 87 51 93 
3 93 51 99 
3 99 51 57 
3 52 53 59 
3 52 59 58 
3 53 54 60 
3 53 60 59 
3 54 55 61 
3 54 61 60 
3 55 56 62 
3 55 62 61 
3 56 57 63 
3 56 63 62 
3 58 59 65 
3 58 65 64 
3 59 60 66 
3 59 66 65 
3 60 61 67 
3 60 67 66 
3 61 62 68 
3 61 68 67 
3 62 63 69 
3 62 69 68 
3 64 65 71 
3 64 71 70 
3 65 66 72 
3 65 72 71 
3 66 67 73 
3 66 73 72 
3 67 68 74 
3 67 74 73 
3 68 69 75 
3 68 75 74 
3 70 71 77 
3 70 77 76 
3 71 72 78 
3 71 78 77 
3 72 73 79 
3 72 79 78 
3 73 74 80 
3 73 80 79 
3 74 75 81 
3 74 81 80 
3 76 77 83 
3 76 83 82 
3 77 78 84 
3 77 84 83 
3 78 79 85 
3 78 85 84 
3 79 80 86 
3 79 86 85 
3 80 81 87 
3 80 87 86 
3 82 83 89 
3 82 89 88 
3 83 84 90 
3 83 90 89 
3 84 85 91 
3 84 91 90 
3 85 86 92 
3 85 92 91 
3 86 87 93 
3 86 93 92 
3 88 89 95 
3 88 95 94 
3 89 90 96 
3 89 96 95 
3 90 91 97 
3 90 97 96 
3 91 92 98 
3 91 98 97 
3 92 93 99 
3 92 99 98 
3 94 95 53 
3 94 53 52 
3 95 96 54 
3 95 54 53 
3 96 97 55 
3 96 55 54 
3 97 98 56 
3 97 56 55 
3 98 99 57 
3 98 57 56 
3 102 108 100 
3 108 114 100 
3 114 120 100 
3 120 126 100 
3 126 132 100 
3 132 138 100 
3 138 144 100 
3 144 102 100 
3 107 101 113 
3 113 101 119 
3 119 101 125 
3 125 101 131 
3 131 101 137 
3 137 101 143 
3 143 101 149 
3 149 101 107 
3 102 103 109 
3 102 109 108 
3 103 104 110 
3 103 110 109 
3 104 105 111 
3 104 111 110 
3 105 106 112 
3 105 112 111 
3 106 107 113 
3 106 113 112 
3 108 109 115 
3 108 115 114 
3 109 110 116 
3 109 116 115 
3 110 111 117 
3 110 117 116 
3 111 112 118 
3 111 118 117 
3 112 113 119 
3 112 119 118 
3 114 115 121 
3 114 121 120 
3 115 116 122 
3 115 122 121 
3 116 117 123 
3 116 123 122 
3 117 118 124 
3 117 124 123 
3 118 119 125 
3 118 125 124 
3 120 121 127 
3 120 127 126 
3 121 122 128 
3 121 128 127 
3 122 123 129 
3 122 129 128 
3 123 124 130 
3 123 130 129 
3 124 125 131 
3 124 131 130 
3 126 127 133 
3 126 133 132 
3 127 128 134 
3 127 134 133 
3 128 129 135 
3 128 135 134 
3 129 130 136 
3 129 136 135 
3 130 131 137 
3 130 137 136 
3 132 133 139 
3 132 139 138 
3 133 134 140 
3 133 140 139 
3 134 135 141 
3 134 141 140 
3 135 136 142 
3 135 142 141 
3 136 137 143 
3 136 143 142 
3 138 139 145 
3 138 145 144 
3 139 140 146 
3 139 146 145 
3 140 141 147 
3 140 147 146 
3 141 142 148 
3 141 148 147 
3 142 143 149 
3 142 149 148 
3 144 145 103 
3 144 103 102 
3 145 146 104 
3 145 104 103 
3 146 147 105 
3 146 105 104 
3 147 148 106 
3 147 106 105 
3 148 149 107 
3 148 107 106 

POINT_DATA 150
SCALARS scales float
LOOKUP_TABLE default
3 3 3 3 3 3 3 3 3 
3 3 3 3 3 3 3 3 3 
3 3 3 3 3 3 3 3 3 
3 3 3 3 3 3 3 3 3 
3 3 3 3 3 3 3 3 3 
3 3 3 3 3 3 3 3 3 
3 3 3 3 3 3 3 3 3 
3 3 3 3 3 3 3 3 3 
3 3 3 3 3 3 3 3 3 
3 3 3 3 3 3 3 3 3 
3 3 3 3 3 3 3 3 3 
3 3 3 3 3 3 3 3 3 
3 3 3 3 3 3 3 3 3 
3 3 3 3 3 3 3 3 3 
3 3 3 3 3 3 3 3 3 
3 3 3 3 3 3 3 3 3 
3 3 3 3 3 3 
NORMALS Normals float
0 0 1 0 0 -1 0.433884 0 0.900969 
0.781831 0 0.62349 0.974928 0 0.222521 0.974928 0 -0.222521 
0.781831 0 -0.62349 0.433884 0 -0.900969 0.306802 0.306802 0.900969 
0.552838 0.552838 0.62349 0.689378 0.689378 0.222521 0.689378 0.689378 -0.222521 
0.552838 0.552838 -0.62349 0.306802 0.306802 -0.900969 2.65677e-017 0.433884 0.900969 
4.78734e-017 0.781831 0.62349 5.96971e-017 0.974928 0.222521 5.96971e-017 0.974928 -0.222521 
4.78734e-017 0.781831 -0.62349 2.65677e-017 0.433884 -0.900969 -0.306802 0.306802 0.900969 
-0.552838 0.552838 0.62349 -0.689378 0.689378 0.222521 -0.689378 0.689378 -0.222521 
-0.552838 0.552838 -0.62349 -0.306802 0.306802 -0.900969 -0.433884 5.31354e-017 0.900969 
-0.781831 9.57467e-017 0.62349 -0.974928 1.19394e-016 0.222521 -0.974928 1.19394e-016 -0.222521 
-0.781831 9.57467e-017 -0.62349 -0.433884 5.31354e-017 -0.900969 -0.306802 -0.306802 0.900969 
-0.552838 -0.552838 0.62349 -0.689378 -0.689378 0.222521 -0.689378 -0.689378 -0.222521 
-0.552838 -0.552838 -0.62349 -0.306802 -0.306802 -0.900969 -7.97032e-017 -0.433884 0.900969 
-1.4362e-016 -0.781831 0.62349 -1.79091e-016 -0.974928 0.222521 -1.79091e-016 -0.974928 -0.222521 
-1.4362e-016 -0.781831 -0.62349 -7.97032e-017 -0.433884 -0.900969 0.306802 -0.306802 0.900969 
0.552838 -0.552838 0.62349 0.689378 -0.689378 0.222521 0.689378 -0.689378 -0.222521 
0.552838 -0.552838 -0.62349 0.306802 -0.306802 -0.900969 0 0 1 
0 0 -1 0.433884 0 0.900969 0.781831 0 0.62349 
0.974928 0 0.222521 0.974928 0 -0.222521 0.781831 0 -0.62349 
0.433884 0 -0.900969 0.306802 0.306802 0.900969 0.552838 0.552838 0.62349 
0.689378 0.689378 0.222521 0.689378 0.689378 -0.222521 0.552838 0.552838 -0.62349 
0.306802 0.306802 -0.900969 2.65677e-017 0.433884 0.900969 4.78734e-017 0.781831 0.62349 
5.96971e-017 0.974928 0.222521 5.96971e-017 0.974928 -0.222521 4.78734e-017 0.781831 -0.62349 
2.65677e-017 0.433884 -0.900969 -0.306802 0.306802 0.900969 -0.552838 0.552838 0.62349 
-0.689378 0.689378 0.222521 -0.689378 0.689378 -0.222521 -0.552838 0.552838 -0.62349 
-0.306802 0.306802 -0.900969 -0.433884 5.31354e-017 0.900969 -0.781831 9.57467e-017 0.62349 
-0.974928 1.19394e-016 0.222521 -0.974928 1.19394e-016 -0.222521 -0.781831 9.57467e-017 -0.62349 
-0.433884 5.31354e-017 -0.900969 -0.306802 -0.306802 0.900969 -0.552838 -0.552838 0.62349 
-0.689378 -0.689378 0.222521 -0.689378 -0.689378 -0.222521 -0.552838 -0.552838 -0.62349 
-0.306802 -0.306802 -0.900969 -7.97032e-017 -0.433884 0.900969 -1.4362e-016 -0.781831 0.62349 
-1.79091e-016 -0.974928 0.222521 -1.79091e-016 -0.974928 -0.222521 -1.4362e-016 -0.781831 -0.62349 
-7.97032e-017 -0.433884 -0.900969 0.306802 -0.306802 0.900969 0.552838 -0.552838 0.62349 
0.689378 -0.689378 0.222521 0.689378 -0.689378 -0.222521 0.552838 -0.552838 -0.62349 
0.306802 -0.306802 -0.900969 0 0 1 0 0 -1 
0.433884 0 0.900969 0.781831 0 0.62349 0.974928 0 0.222521 
0.974928 0 -0.222521 0.781831 0 -0.62349 0.433884 0 -0.900969 
0.306802 0.306802 0.900969 0.552838 0.552838 0.62349 0.689378 0.689378 0.222521 
0.689378 0.689378 -0.222521 0.552838 0.552838 -0.62349 0.306802 0.306802 -0.900969 
2.65677e-017 0.433884 0.900969 4.78734e-017 0.781831 0.62349 5.96971e-017 0.974928 0.222521 
5.96971e-017 0.974928 -0.222521 4.78734e-017 0.781831 -0.62349 2.65677e-017 0.433884 -0.900969 
-0.306802 0.306802 0.900969 -0.552838 0.552838 0.62349 -0.689378 0.689378 0.222521 
-0.689378 0.689378 -0.222521 -0.552838 0.552838 -0.62349 -0.306802 0.306802 -0.900969 
-0.433884 5.31354e-017 0.900969 -0.781831 9.57467e-017 0.62349 -0.974928 1.19394e-016 0.222521 
-0.974928 1.19394e-016 -0.222521 -0.781831 9.57467e-017 -0.62349 -0.433884 5.31354e-017 -0.900969 
-0.306802 -0.306802 0.900969 -0.552838 -0.552838 0.62349 -0.689378 -0.689378 0.222521 
-0.689378 -0.689378 -0.222521 -0.552838 -0.552838 -0.62349 -0.306802 -0.306802 -0.900969 
-7.97032e-017 -0.433884 0.900969 -1.4362e-016 -0.781831 0.62349 -1.79091e-016 -0.974928 0.222521 
-1.79091e-016 -0.974928 -0.222521 -1.4362e-016 -0.781831 -0.62349 -7.97032e-017 -0.433884 -0.900969 
0.306802 -0.306802 0.900969 0.552838 -0.552838 0.62349 0.689378 -0.689378 0.222521 
0.689378 -0.689378 -0.222521 0.552838 -0.552838 -0.62349 0.306802 -0.306802 -0.900969 

FIELD FieldData 1
Colors 3 150 unsigned_char
153 0 153 153 0 153 153 0 153 
153 0 153 153 0 153 153 0 153 
153 0 153 153 0 153 153 0 153 
153 0 153 153 0 153 153 0 153 
153 0 153 153 0 153 153 0 153 
153 0 153 153 0 153 153 0 153 
153 0 153 153 0 153 153 0 153 
153 0 153 153 0 153 153 0 153 
153 0 153 153 0 153 153 0 153 
153 0 153 153 0 153 153 0 153 
153 0 153 153 0 153 153 0 153 
153 0 153 153 0 153 153 0 153 
153 0 153 153 0 153 153 0 153 
153 0 153 153 0 153 153 0 153 
153 0 153 153 0 153 153 0 153 
153 0 153 153 0 153 153 0 153 
153 0 153 153 0 153 153 0 153 
153 0 153 153 0 153 153 0 153 
153 0 153 153 0 153 153 0 153 
153 0 153 153 0 153 153 0 153 
153 0 153 153 0 153 153 0 153 
153 0 153 153 0 153 153 0 153 
153 0 153 153 0 153 153 0 153 
153 0 153 153 0 153 153 0 153 
153 0 153 153 0 153 153 0 153 
153 0 153 153 0 153 153 0 153 
153 0 153 153 0 153 153 0 153 
153 0 153 153 0 153 153 0 153 
153 0 153 153 0 153 153 0 153 
153 0 153 153 0 153 153 0 153 
153 0 153 153 0 153 153 0 153 
153 0 153 153 0 153 153 0 153 
153 0 153 153 0 153 153 0 153 
153 0 153 153 0 153 153 0 153 
153 0 153 153 0 153 153 0 153 
153 0 153 153 0 153 153 0 153 
153 0 153 153 0 153 153 0 153 
153 0 153 153 0 153 153 0 153 
153 0 153 153 0 153 153 0 153 
153 0 153 153 0 153 153 0 153 
153 0 153 153 0 153 153 0 153 
153 0 153 153 0 153 153 0 153 
153 0 153 153 0 153 153 0 153 
153 0 153 153 0 153 153 0 153 
153 0 153 153 0 153 153 0 153 
153 0 153 153 0 153 153 0 153 
153 0 153 153 0 153 153 0 153 
153 0 153 153 0 153 153 0 153 
153 0 153 153 0 153 153 0 153 
153 0 153 153 0 153 153 0 153 

