# vtk DataFile Version 3.0
vtk output
ASCII
DATASET POLYDATA
POINTS 1150 float
442 444 335.5 442 444 330.5 443.085 444 335.252 
443.955 444 334.559 444.437 444 333.556 444.437 444 332.444 
443.955 444 331.441 443.085 444 330.748 442.767 444.767 335.252 
443.382 445.382 334.559 443.723 445.723 333.556 443.723 445.723 332.444 
443.382 445.382 331.441 442.767 444.767 330.748 442 445.085 335.252 
442 445.955 334.559 442 446.437 333.556 442 446.437 332.444 
442 445.955 331.441 442 445.085 330.748 441.233 444.767 335.252 
440.618 445.382 334.559 440.277 445.723 333.556 440.277 445.723 332.444 
440.618 445.382 331.441 441.233 444.767 330.748 440.915 444 335.252 
440.045 444 334.559 439.563 444 333.556 439.563 444 332.444 
440.045 444 331.441 440.915 444 330.748 441.233 443.233 335.252 
440.618 442.618 334.559 440.277 442.277 333.556 440.277 442.277 332.444 
440.618 442.618 331.441 441.233 443.233 330.748 442 442.915 335.252 
442 442.045 334.559 442 441.563 333.556 442 441.563 332.444 
442 442.045 331.441 442 442.915 330.748 442.767 443.233 335.252 
443.382 442.618 334.559 443.723 442.277 333.556 443.723 442.277 332.444 
443.382 442.618 331.441 442.767 443.233 330.748 449 391 262.5 
449 391 257.5 450.085 391 262.252 450.955 391 261.559 
451.437 391 260.556 451.437 391 259.444 450.955 391 258.441 
450.085 391 257.748 449.767 391.767 262.252 450.382 392.382 261.559 
450.723 392.723 260.556 450.723 392.723 259.444 450.382 392.382 258.441 
449.767 391.767 257.748 449 392.085 262.252 449 392.955 261.559 
449 393.437 260.556 449 393.437 259.444 449 392.955 258.441 
449 392.085 257.748 448.233 391.767 262.252 447.618 392.382 261.559 
447.277 392.723 260.556 447.277 392.723 259.444 447.618 392.382 258.441 
448.233 391.767 257.748 447.915 391 262.252 447.045 391 261.559 
446.563 391 260.556 446.563 391 259.444 447.045 391 258.441 
447.915 391 257.748 448.233 390.233 262.252 447.618 389.618 261.559 
447.277 389.277 260.556 447.277 389.277 259.444 447.618 389.618 258.441 
448.233 390.233 257.748 449 389.915 262.252 449 389.045 261.559 
449 388.563 260.556 449 388.563 259.444 449 389.045 258.441 
449 389.915 257.748 449.767 390.233 262.252 450.382 389.618 261.559 
450.723 389.277 260.556 450.723 389.277 259.444 450.382 389.618 258.441 
449.767 390.233 257.748 430 431 297.5 430 431 292.5 
431.085 431 297.252 431.955 431 296.559 432.437 431 295.556 
432.437 431 294.444 431.955 431 293.441 431.085 431 292.748 
430.767 431.767 297.252 431.382 432.382 296.559 431.723 432.723 295.556 
431.723 432.723 294.444 431.382 432.382 293.441 430.767 431.767 292.748 
430 432.085 297.252 430 432.955 296.559 430 433.437 295.556 
430 433.437 294.444 430 432.955 293.441 430 432.085 292.748 
429.233 431.767 297.252 428.618 432.382 296.559 428.277 432.723 295.556 
428.277 432.723 294.444 428.618 432.382 293.441 429.233 431.767 292.748 
428.915 431 297.252 428.045 431 296.559 427.563 431 295.556 
427.563 431 294.444 428.045 431 293.441 428.915 431 292.748 
429.233 430.233 297.252 428.618 429.618 296.559 428.277 429.277 295.556 
428.277 429.277 294.444 428.618 429.618 293.441 429.233 430.233 292.748 
430 429.915 297.252 430 429.045 296.559 430 428.563 295.556 
430 428.563 294.444 430 429.045 293.441 430 429.915 292.748 
430.767 430.233 297.252 431.382 429.618 296.559 431.723 429.277 295.556 
431.723 429.277 294.444 431.382 429.618 293.441 430.767 430.233 292.748 
448 436 355.5 448 436 350.5 449.085 436 355.252 
449.955 436 354.559 450.437 436 353.556 450.437 436 352.444 
449.955 436 351.441 449.085 436 350.748 448.767 436.767 355.252 
449.382 437.382 354.559 449.723 437.723 353.556 449.723 437.723 352.444 
449.382 437.382 351.441 448.767 436.767 350.748 448 437.085 355.252 
448 437.955 354.559 448 438.437 353.556 448 438.437 352.444 
448 437.955 351.441 448 437.085 350.748 447.233 436.767 355.252 
446.618 437.382 354.559 446.277 437.723 353.556 446.277 437.723 352.444 
446.618 437.382 351.441 447.233 436.767 350.748 446.915 436 355.252 
446.045 436 354.559 445.563 436 353.556 445.563 436 352.444 
446.045 436 351.441 446.915 436 350.748 447.233 435.233 355.252 
446.618 434.618 354.559 446.277 434.277 353.556 446.277 434.277 352.444 
446.618 434.618 351.441 447.233 435.233 350.748 448 434.915 355.252 
448 434.045 354.559 448 433.563 353.556 448 433.563 352.444 
448 434.045 351.441 448 434.915 350.748 448.767 435.233 355.252 
449.382 434.618 354.559 449.723 434.277 353.556 449.723 434.277 352.444 
449.382 434.618 351.441 448.767 435.233 350.748 444 336 280.5 
444 336 275.5 445.085 336 280.252 445.955 336 279.559 
446.437 336 278.556 446.437 336 277.444 445.955 336 276.441 
445.085 336 275.748 444.767 336.767 280.252 445.382 337.382 279.559 
445.723 337.723 278.556 445.723 337.723 277.444 445.382 337.382 276.441 
444.767 336.767 275.748 444 337.085 280.252 444 337.955 279.559 
444 338.437 278.556 444 338.437 277.444 444 337.955 276.441 
444 337.085 275.748 443.233 336.767 280.252 442.618 337.382 279.559 
442.277 337.723 278.556 442.277 337.723 277.444 442.618 337.382 276.441 
443.233 336.767 275.748 442.915 336 280.252 442.045 336 279.559 
441.563 336 278.556 441.563 336 277.444 442.045 336 276.441 
442.915 336 275.748 443.233 335.233 280.252 442.618 334.618 279.559 
442.277 334.277 278.556 442.277 334.277 277.444 442.618 334.618 276.441 
443.233 335.233 275.748 444 334.915 280.252 444 334.045 279.559 
444 333.563 278.556 444 333.563 277.444 444 334.045 276.441 
444 334.915 275.748 444.767 335.233 280.252 445.382 334.618 279.559 
445.723 334.277 278.556 445.723 334.277 277.444 445.382 334.618 276.441 
444.767 335.233 275.748 168 415 398.5 168 415 393.5 
169.085 415 398.252 169.955 415 397.559 170.437 415 396.556 
170.437 415 395.444 169.955 415 394.441 169.085 415 393.748 
168.767 415.767 398.252 169.382 416.382 397.559 169.723 416.723 396.556 
169.723 416.723 395.444 169.382 416.382 394.441 168.767 415.767 393.748 
168 416.085 398.252 168 416.955 397.559 168 417.437 396.556 
168 417.437 395.444 168 416.955 394.441 168 416.085 393.748 
167.233 415.767 398.252 166.618 416.382 397.559 166.277 416.723 396.556 
166.277 416.723 395.444 166.618 416.382 394.441 167.233 415.767 393.748 
166.915 415 398.252 166.045 415 397.559 165.563 415 396.556 
165.563 415 395.444 166.045 415 394.441 166.915 415 393.748 
167.233 414.233 398.252 166.618 413.618 397.559 166.277 413.277 396.556 
166.277 413.277 395.444 166.618 413.618 394.441 167.233 414.233 393.748 
168 413.915 398.252 168 413.045 397.559 168 412.563 396.556 
168 412.563 395.444 168 413.045 394.441 168 413.915 393.748 
168.767 414.233 398.252 169.382 413.618 397.559 169.723 413.277 396.556 
169.723 413.277 395.444 169.382 413.618 394.441 168.767 414.233 393.748 
508 389 360.5 508 389 355.5 509.085 389 360.252 
509.955 389 359.559 510.437 389 358.556 510.437 389 357.444 
509.955 389 356.441 509.085 389 355.748 508.767 389.767 360.252 
509.382 390.382 359.559 509.723 390.723 358.556 509.723 390.723 357.444 
509.382 390.382 356.441 508.767 389.767 355.748 508 390.085 360.252 
508 390.955 359.559 508 391.437 358.556 508 391.437 357.444 
508 390.955 356.441 508 390.085 355.748 507.233 389.767 360.252 
506.618 390.382 359.559 506.277 390.723 358.556 506.277 390.723 357.444 
506.618 390.382 356.441 507.233 389.767 355.748 506.915 389 360.252 
506.045 389 359.559 505.563 389 358.556 505.563 389 357.444 
506.045 389 356.441 506.915 389 355.748 507.233 388.233 360.252 
506.618 387.618 359.559 506.277 387.277 358.556 506.277 387.277 357.444 
506.618 387.618 356.441 507.233 388.233 355.748 508 387.915 360.252 
508 387.045 359.559 508 386.563 358.556 508 386.563 357.444 
508 387.045 356.441 508 387.915 355.748 508.767 388.233 360.252 
509.382 387.618 359.559 509.723 387.277 358.556 509.723 387.277 357.444 
509.382 387.618 356.441 508.767 388.233 355.748 17 702 371.5 
17 702 366.5 18.0847 702 371.252 18.9546 702 370.559 
19.4373 702 369.556 19.4373 702 368.444 18.9546 702 367.441 
18.0847 702 366.748 17.767 702.767 371.252 18.3821 703.382 370.559 
18.7234 703.723 369.556 18.7234 703.723 368.444 18.3821 703.382 367.441 
17.767 702.767 366.748 17 703.085 371.252 17 703.955 370.559 
17 704.437 369.556 17 704.437 368.444 17 703.955 367.441 
17 703.085 366.748 16.233 702.767 371.252 15.6179 703.382 370.559 
15.2766 703.723 369.556 15.2766 703.723 368.444 15.6179 703.382 367.441 
16.233 702.767 366.748 15.9153 702 371.252 15.0454 702 370.559 
14.5627 702 369.556 14.5627 702 368.444 15.0454 702 367.441 
15.9153 702 366.748 16.233 701.233 371.252 15.6179 700.618 370.559 
15.2766 700.277 369.556 15.2766 700.277 368.444 15.6179 700.618 367.441 
16.233 701.233 366.748 17 700.915 371.252 17 700.045 370.559 
17 699.563 369.556 17 699.563 368.444 17 700.045 367.441 
17 700.915 366.748 17.767 701.233 371.252 18.3821 700.618 370.559 
18.7234 700.277 369.556 18.7234 700.277 368.444 18.3821 700.618 367.441 
17.767 701.233 366.748 63 17 319.5 63 17 314.5 
64.0847 17 319.252 64.9546 17 318.559 65.4373 17 317.556 
65.4373 17 316.444 64.9546 17 315.441 64.0847 17 314.748 
63.767 17.767 319.252 64.3821 18.3821 318.559 64.7234 18.7234 317.556 
64.7234 18.7234 316.444 64.3821 18.3821 315.441 63.767 17.767 314.748 
63 18.0847 319.252 63 18.9546 318.559 63 19.4373 317.556 
63 19.4373 316.444 63 18.9546 315.441 63 18.0847 314.748 
62.233 17.767 319.252 61.6179 18.3821 318.559 61.2766 18.7234 317.556 
61.2766 18.7234 316.444 61.6179 18.3821 315.441 62.233 17.767 314.748 
61.9153 17 319.252 61.0454 17 318.559 60.5627 17 317.556 
60.5627 17 316.444 61.0454 17 315.441 61.9153 17 314.748 
62.233 16.233 319.252 61.6179 15.6179 318.559 61.2766 15.2766 317.556 
61.2766 15.2766 316.444 61.6179 15.6179 315.441 62.233 16.233 314.748 
63 15.9153 319.252 63 15.0454 318.559 63 14.5627 317.556 
63 14.5627 316.444 63 15.0454 315.441 63 15.9153 314.748 
63.767 16.233 319.252 64.3821 15.6179 318.559 64.7234 15.2766 317.556 
64.7234 15.2766 316.444 64.3821 15.6179 315.441 63.767 16.233 314.748 
229 398 358.5 229 398 353.5 230.085 398 358.252 
[...]
POINT_DATA 1150
SCALARS scales float
LOOKUP_TABLE default
5 5 5 5 5 5 5 5 5 
5 5 5 5 5 5 5 5 5 
5 5 5 5 5 5 5 5 5 
5 5 5 5 5 5 5 5 5 
5 5 5 5 5 5 5 5 5 
5 5 5 5 5 5 5 5 5 
5 5 5 5 5 5 5 5 5 
5 5 5 5 5 5 5 5 5 
5 5 5 5 5 5 5 5 5 
5 5 5 5 5 5 5 5 5 
5 5 5 5 5 5 5 5 5 
5 5 5 5 5 5 5 5 5 
5 5 5 5 5 5 5 5 5 
5 5 5 5 5 5 5 5 5 
5 5 5 5 5 5 5 5 5 
5 5 5 5 5 5 5 5 5 
5 5 5 5 5 5 5 5 5 
5 5 5 5 5 5 5 5 5 
5 5 5 5 5 5 5 5 5 
5 5 5 5 5 5 5 5 5 
5 5 5 5 5 5 5 5 5 
5 5 5 5 5 5 5 5 5 
5 5 5 5 5 5 5 5 5 
5 5 5 5 5 5 5 5 5 
5 5 5 5 5 5 5 5 5 
5 5 5 5 5 5 5 5 5 
5 5 5 5 5 5 5 5 5 
5 5 5 5 5 5 5 5 5 
5 5 5 5 5 5 5 5 5 
5 5 5 5 5 5 5 5 5 
5 5 5 5 5 5 5 5 5 
5 5 5 5 5 5 5 5 5 
5 5 5 5 5 5 5 5 5 
5 5 5 5 5 5 5 5 5 
5 5 5 5 5 5 5 5 5 
5 5 5 5 5 5 5 5 5 
5 5 5 5 5 5 5 5 5 
5 5 5 5 5 5 5 5 5 
5 5 5 5 5 5 5 5 5 
5 5 5 5 5 5 5 5 5 
5 5 5 5 5 5 5 5 5 
5 5 5 5 5 5 5 5 5 
5 5 5 5 5 5 5 5 5 
5 5 5 5 5 5 5 5 5 
5 5 5 5 5 5 5 5 5 
5 5 5 5 5 5 5 5 5 
5 5 5 5 5 5 5 5 5 
5 5 5 5 5 5 5 5 5 
5 5 5 5 5 5 5 5 5 
5 5 5 5 5 5 5 5 5 
5 5 5 5 5 5 5 5 5 
5 5 5 5 5 5 5 5 5 
5 5 5 5 5 5 5 5 5 
5 5 5 5 5 5 5 5 5 
5 5 5 5 5 5 5 5 5 
5 5 5 5 5 5 5 5 5 
5 5 5 5 5 5 5 5 5 
5 5 5 5 5 5 5 5 5 
5 5 5 5 5 5 5 5 5 
5 5 5 5 5 5 5 5 5 
5 5 5 5 5 5 5 5 5 
5 5 5 5 5 5 5 5 5 
5 5 5 5 5 5 5 5 5 
5 5 5 5 5 5 5 5 5 
5 5 5 5 5 5 5 5 5 
5 5 5 5 5 5 5 5 5 
5 5 5 5 5 5 5 5 5 
5 5 5 5 5 5 5 5 5 
5 5 5 5 5 5 5 5 5 
5 5 5 5 5 5 5 5 5 
5 5 5 5 5 5 5 5 5 
5 5 5 5 5 5 5 5 5 
5 5 5 5 5 5 5 5 5 
5 5 5 5 5 5 5 5 5 
5 5 5 5 5 5 5 5 5 
5 5 5 5 5 5 5 5 5 
5 5 5 5 5 5 5 5 5 
5 5 5 5 5 5 5 5 5 
5 5 5 5 5 5 5 5 5 
5 5 5 5 5 5 5 5 5 
5 5 5 5 5 5 5 5 5 
5 5 5 5 5 5 5 5 5 
5 5 5 5 5 5 5 5 5 
5 5 5 5 5 5 5 5 5 
5 5 5 5 5 5 5 5 5 
5 5 5 5 5 5 5 5 5 
5 5 5 5 5 5 5 5 5 
5 5 5 5 5 5 5 5 5 
5 5 5 5 5 5 5 5 5 
5 5 5 5 5 5 5 5 5 
5 5 5 5 5 5 5 5 5 
5 5 5 5 5 5 5 5 5 
5 5 5 5 5 5 5 5 5 
5 5 5 5 5 5 5 5 5 
5 5 5 5 5 5 5 5 5 
5 5 5 5 5 5 5 5 5 
5 5 5 5 5 5 5 5 5 
5 5 5 5 5 5 5 5 5 
5 5 5 5 5 5 5 5 5 
5 5 5 5 5 5 5 5 5 
5 5 5 5 5 5 5 5 5 
5 5 5 5 5 5 5 5 5 
5 5 5 5 5 5 5 5 5 
5 5 5 5 5 5 5 5 5 
5 5 5 5 5 5 5 5 5 
5 5 5 5 5 5 5 5 5 
5 5 5 5 5 5 5 5 5 
5 5 5 5 5 5 5 5 5 
5 5 5 5 5 5 5 5 5 
5 5 5 5 5 5 5 5 5 
5 5 5 5 5 5 5 5 5 
5 5 5 5 5 5 5 5 5 
5 5 5 5 5 5 5 5 5 
5 5 5 5 5 5 5 5 5 
5 5 5 5 5 5 5 5 5 
5 5 5 5 5 5 5 5 5 
5 5 5 5 5 5 5 5 5 
5 5 5 5 5 5 5 5 5 
5 5 5 5 5 5 5 5 5 
5 5 5 5 5 5 5 5 5 
5 5 5 5 5 5 5 5 5 
5 5 5 5 5 5 5 5 5 
5 5 5 5 5 5 5 5 5 
5 5 5 5 5 5 5 5 5 
5 5 5 5 5 5 5 5 5 
5 5 5 5 5 5 5 5 5 
5 5 5 5 5 5 5 5 5 
5 5 5 5 5 5 5 
NORMALS Normals float
0 0 1 0 0 -1 0.433884 0 0.900969 
0.781832 0 0.62349 0.974928 0 0.222521 0.974928 0 -0.222521 
0.781832 0 -0.62349 0.433884 0 -0.900969 0.306802 0.306802 0.900969 
0.552838 0.552838 0.62349 0.689378 0.689378 0.222521 0.689378 0.689378 -0.222521 
0.552838 0.552838 -0.62349 0.306802 0.306802 -0.900969 2.65677e-017 0.433884 0.900969 
4.78734e-017 0.781832 0.62349 5.96971e-017 0.974928 0.222521 5.96971e-017 0.974928 -0.222521 
4.78734e-017 0.781832 -0.62349 2.65677e-017 0.433884 -0.900969 -0.306802 0.306802 0.900969 
-0.552838 0.552838 0.62349 -0.689378 0.689378 0.222521 -0.689378 0.689378 -0.222521 
-0.552838 0.552838 -0.62349 -0.306802 0.306802 -0.900969 -0.433884 5.31354e-017 0.900969 
-0.781832 9.57467e-017 0.62349 -0.974928 1.19394e-016 0.222521 -0.974928 1.19394e-016 -0.222521 
-0.781832 9.57467e-017 -0.62349 -0.433884 5.31354e-017 -0.900969 -0.306802 -0.306802 0.900969 
-0.552838 -0.552838 0.62349 -0.689378 -0.689378 0.222521 -0.689378 -0.689378 -0.222521 
-0.552838 -0.552838 -0.62349 -0.306802 -0.306802 -0.900969 -7.97031e-017 -0.433884 0.900969 
-1.4362e-016 -0.781832 0.62349 -1.79091e-016 -0.974928 0.222521 -1.79091e-016 -0.974928 -0.222521 
-1.4362e-016 -0.781832 -0.62349 -7.97031e-017 -0.433884 -0.900969 0.306802 -0.306802 0.900969 
0.552838 -0.552838 0.62349 0.689378 -0.689378 0.222521 0.689378 -0.689378 -0.222521 
0.552838 -0.552838 -0.62349 0.306802 -0.306802 -0.900969 0 0 1 
0 0 -1 0.433884 0 0.900969 0.781832 0 0.62349 
0.974928 0 0.222521 0.974928 0 -0.222521 0.781832 0 -0.62349 
0.433884 0 -0.900969 0.306802 0.306802 0.900969 0.552838 0.552838 0.62349 
0.689378 0.689378 0.222521 0.689378 0.689378 -0.222521 0.552838 0.552838 -0.62349 
0.306802 0.306802 -0.900969 2.65677e-017 0.433884 0.900969 4.78734e-017 0.781832 0.62349 
5.96971e-017 0.974928 0.222521 5.96971e-017 0.974928 -0.222521 4.78734e-017 0.781832 -0.62349 
2.65677e-017 0.433884 -0.900969 -0.306802 0.306802 0.900969 -0.552838 0.552838 0.62349 
-0.689378 0.689378 0.222521 -0.689378 0.689378 -0.222521 -0.552838 0.552838 -0.62349 
-0.306802 0.306802 -0.900969 -0.433884 5.31354e-017 0.900969 -0.781832 9.57467e-017 0.62349 
-0.974928 1.19394e-016 0.222521 -0.974928 1.19394e-016 -0.222521 -0.781832 9.57467e-017 -0.62349 
-0.433884 5.31354e-017 -0.900969 -0.306802 -0.306802 0.900969 -0.552838 -0.552838 0.62349 
-0.689378 -0.689378 0.222521 -0.689378 -0.689378 -0.222521 -0.552838 -0.552838 -0.62349 
-0.306802 -0.306802 -0.900969 -7.97031e-017 -0.433884 0.900969 -1.4362e-016 -0.781832 0.62349 
-1.79091e-016 -0.974928 0.222521 -1.79091e-016 -0.974928 -0.222521 -1.4362e-016 -0.781832 -0.62349 
-7.97031e-017 -0.433884 -0.900969 0.306802 -0.306802 0.900969 0.552838 -0.552838 0.62349 
0.689378 -0.689378 0.222521 0.689378 -0.689378 -0.222521 0.552838 -0.552838 -0.62349 
0.306802 -0.306802 -0.900969 0 0 1 0 0 -1 
0.433884 0 0.900969 0.781832 0 0.62349 0.974928 0 0.222521 
0.974928 0 -0.222521 0.781832 0 -0.62349 0.433884 0 -0.900969 
0.306802 0.306802 0.900969 0.552838 0.552838 0.62349 0.689378 0.689378 0.222521 
0.689378 0.689378 -0.222521 0.552838 0.552838 -0.62349 0.306802 0.306802 -0.900969 
2.65677e-017 0.433884 0.900969 4.78734e-017 0.781832 0.62349 5.96971e-017 0.974928 0.222521 
5.96971e-017 0.974928 -0.222521 4.78734e-017 0.781832 -0.62349 2.65677e-017 0.433884 -0.900969 
-0.306802 0.306802 0.900969 -0.552838 0.552838 0.62349 -0.689378 0.689378 0.222521 
-0.689378 0.689378 -0.222521 -0.552838 0.552838 -0.62349 -0.306802 0.306802 -0.900969 
-0.433884 5.31354e-017 0.900969 -0.781832 9.57467e-017 0.62349 -0.974928 1.19394e-016 0.222521 
-0.974928 1.19394e-016 -0.222521 -0.781832 9.57467e-017 -0.62349 -0.433884 5.31354e-017 -0.900969 
-0.306802 -0.306802 0.900969 -0.552838 -0.552838 0.62349 -0.689378 -0.689378 0.222521 
-0.689378 -0.689378 -0.222521 -0.552838 -0.552838 -0.62349 -0.306802 -0.306802 -0.900969 
-7.97031e-017 -0.433884 0.900969 -1.4362e-016 -0.781832 0.62349 -1.79091e-016 -0.974928 0.222521 
-1.79091e-016 -0.974928 -0.222521 -1.4362e-016 -0.781832 -0.62349 -7.97031e-017 -0.433884 -0.900969 
0.306802 -0.306802 0.900969 0.552838 -0.552838 0.62349 0.689378 -0.689378 0.222521 
0.689378 -0.689378 -0.222521 0.552838 -0.552838 -0.62349 0.306802 -0.306802 -0.900969 
0 0 1 0 0 -1 0.433884 0 0.900969 
0.781832 0 0.62349 0.974928 0 0.222521 0.974928 0 -0.222521 
0.781832 0 -0.62349 0.433884 0 -0.900969 0.306802 0.306802 0.900969 
0.552838 0.552838 0.62349 0.689378 0.689378 0.222521 0.689378 0.689378 -0.222521 
0.552838 0.552838 -0.62349 0.306802 0.306802 -0.900969 2.65677e-017 0.433884 0.900969 
4.78734e-017 0.781832 0.62349 5.96971e-017 0.974928 0.222521 5.96971e-017 0.974928 -0.222521 
4.78734e-017 0.781832 -0.62349 2.65677e-017 0.433884 -0.900969 -0.306802 0.306802 0.900969 
-0.552838 0.552838 0.62349 -0.689378 0.689378 0.222521 -0.689378 0.689378 -0.222521 
-0.552838 0.552838 -0.62349 -0.306802 0.306802 -0.900969 -0.433884 5.31354e-017 0.900969 
-0.781832 9.57467e-017 0.62349 -0.974928 1.19394e-016 0.222521 -0.974928 1.19394e-016 -0.222521 
-0.781832 9.57467e-017 -0.62349 -0.433884 5.31354e-017 -0.900969 -0.306802 -0.306802 0.900969 
-0.552838 -0.552838 0.62349 -0.689378 -0.689378 0.222521 -0.689378 -0.689378 -0.222521 
-0.552838 -0.552838 -0.62349 -0.306802 -0.306802 -0.900969 -7.97031e-017 -0.433884 0.900969 
-1.4362e-016 -0.781832 0.62349 -1.79091e-016 -0.974928 0.222521 -1.79091e-016 -0.974928 -0.222521 
-1.4362e-016 -0.781832 -0.62349 -7.97031e-017 -0.433884 -0.900969 0.306802 -0.306802 0.900969 
0.552838 -0.552838 0.62349 0.689378 -0.689378 0.222521 0.689378 -0.689378 -0.222521 
0.552838 -0.552838 -0.62349 0.306802 -0.306802 -0.900969 0 0 1 
0 0 -1 0.433884 0 0.900969 0.781832 0 0.62349 
0.974928 0 0.222521 0.974928 0 -0.222521 0.781832 0 -0.62349 
0.433884 0 -0.900969 0.306802 0.306802 0.900969 0.552838 0.552838 0.62349 
0.689378 0.689378 0.222521 0.689378 0.689378 -0.222521 0.552838 0.552838 -0.62349 
0.306802 0.306802 -0.900969 2.65677e-017 0.433884 0.900969 4.78734e-017 0.781832 0.62349 
5.96971e-017 0.974928 0.222521 5.96971e-017 0.974928 -0.222521 4.78734e-017 0.781832 -0.62349 
2.65677e-017 0.433884 -0.900969 -0.306802 0.306802 0.900969 -0.552838 0.552838 0.62349 
-0.689378 0.689378 0.222521 -0.689378 0.689378 -0.222521 -0.552838 0.552838 -0.62349 
-0.306802 0.306802 -0.900969 -0.433884 5.31354e-017 0.900969 -0.781832 9.57467e-017 0.62349 
-0.974928 1.19394e-016 0.222521 -0.974928 1.19394e-016 -0.222521 -0.781832 9.57467e-017 -0.62349 
-0.433884 5.31354e-017 -0.900969 -0.306802 -0.306802 0.900969 -0.552838 -0.552838 0.62349 
-0.689378 -0.689378 0.222521 -0.689378 -0.689378 -0.222521 -0.552838 -0.552838 -0.62349 
-0.306802 -0.306802 -0.900969 -7.97031e-017 -0.433884 0.900969 -1.4362e-016 -0.781832 0.62349 
-1.79091e-016 -0.974928 0.222521 -1.79091e-016 -0.974928 -0.222521 -1.4362e-016 -0.781832 -0.62349 
-7.97031e-017 -0.433884 -0.900969 0.306802 -0.306802 0.900969 0.552838 -0.552838 0.62349 
0.689378 -0.689378 0.222521 0.689378 -0.689378 -0.222521 0.552838 -0.552838 -0.62349 
0.306802 -0.306802 -0.900969 0 0 1 0 0 -1 
0.433884 0 0.900969 0.781832 0 0.62349 0.974928 0 0.222521 
0.974928 0 -0.222521 0.781832 0 -0.62349 0.433884 0 -0.900969 
0.306802 0.306802 0.900969 0.552838 0.552838 0.62349 0.689378 0.689378 0.222521 
0.689378 0.689378 -0.222521 0.552838 0.552838 -0.62349 0.306802 0.306802 -0.900969 
2.65677e-017 0.433884 0.900969 4.78734e-017 0.781832 0.62349 5.96971e-017 0.974928 0.222521 
5.96971e-017 0.974928 -0.222521 4.78734e-017 0.781832 -0.62349 2.65677e-017 0.433884 -0.900969 
-0.306802 0.306802 0.900969 -0.552838 0.552838 0.62349 -0.689378 0.689378 0.222521 
-0.689378 0.689378 -0.222521 -0.552838 0.552838 -0.62349 -0.306802 0.306802 -0.900969 
-0.433884 5.31354e-017 0.900969 -0.781832 9.57467e-017 0.62349 -0.974928 1.19394e-016 0.222521 
-0.974928 1.19394e-016 -0.222521 -0.781832 9.57467e-017 -0.62349 -0.433884 5.31354e-017 -0.900969 
-0.306802 -0.306802 0.900969 -0.552838 -0.552838 0.62349 -0.689378 -0.689378 0.222521 
-0.689378 -0.689378 -0.222521 -0.552838 -0.552838 -0.62349 -0.306802 -0.306802 -0.900969 
-7.97031e-017 -0.433884 0.900969 -1.4362e-016 -0.781832 0.62349 -1.79091e-016 -0.974928 0.222521 
-1.79091e-016 -0.974928 -0.222521 -1.4362e-016 -0.781832 -0.62349 -7.97031e-017 -0.433884 -0.900969 
0.306802 -0.306802 0.900969 0.552838 -0.552838 0.62349 0.689378 -0.689378 0.222521 
0.689378 -0.689378 -0.222521 0.552838 -0.552838 -0.62349 0.306802 -0.306802 -0.900969 
0 0 1 0 0 -1 0.433884 0 0.900969 
0.781832 0 0.62349 0.974928 0 0.222521 0.974928 0 -0.222521 
0.781832 0 -0.62349 0.433884 0 -0.900969 0.306802 0.306802 0.900969 
0.552838 0.552838 0.62349 0.689378 0.689378 0.222521 0.689378 0.689378 -0.222521 
0.552838 0.552838 -0.62349 0.306802 0.306802 -0.900969 2.65677e-017 0.433884 0.900969 
4.78734e-017 0.781832 0.62349 5.96971e-017 0.974928 0.222521 5.96971e-017 0.974928 -0.222521 
4.78734e-017 0.781832 -0.62349 2.65677e-017 0.433884 -0.900969 -0.306802 0.306802 0.900969 
-0.552838 0.552838 0.62349 -0.689378 0.689378 0.222521 -0.689378 0.689378 -0.222521 
-0.552838 0.552838 -0.62349 -0.306802 0.306802 -0.900969 -0.433884 5.31354e-017 0.900969 
-0.781832 9.57467e-017 0.62349 -0.974928 1.19394e-016 0.222521 -0.974928 1.19394e-016 -0.222521 
-0.781832 9.57467e-017 -0.62349 -0.433884 5.31354e-017 -0.900969 -0.306802 -0.306802 0.900969 
-0.552838 -0.552838 0.62349 -0.689378 -0.689378 0.222521 -0.689378 -0.689378 -0.222521 
-0.552838 -0.552838 -0.62349 -0.306802 -0.306802 -0.900969 -7.97031e-017 -0.433884 0.900969 
-1.4362e-016 -0.781832 0.62349 -1.79091e-016 -0.974928 0.222521 -1.79091e-016 -0.974928 -0.222521 
-1.4362e-016 -0.781832 -0.62349 -7.97031e-017 -0.433884 -0.900969 0.306802 -0.306802 0.900969 
0.552838 -0.552838 0.62349 0.689378 -0.689378 0.222521 0.689378 -0.689378 -0.222521 
0.552838 -0.552838 -0.62349 0.306802 -0.306802 -0.900969 0 0 1 
0 0 -1 0.433884 0 0.900969 0.781832 0 0.62349 
0.974928 0 0.222521 0.974928 0 -0.222521 0.781832 0 -0.62349 
0.433884 0 -0.900969 0.306802 0.306802 0.900969 0.552838 0.552838 0.62349 
0.689378 0.689378 0.222521 0.689378 0.689378 -0.222521 0.552838 0.552838 -0.62349 
0.306802 0.306802 -0.900969 2.65677e-017 0.433884 0.900969 4.78734e-017 0.781832 0.62349 
5.96971e-017 0.974928 0.222521 5.96971e-017 0.974928 -0.222521 4.78734e-017 0.781832 -0.62349 
2.65677e-017 0.433884 -0.900969 -0.306802 0.306802 0.900969 -0.552838 0.552838 0.62349 
-0.689378 0.689378 0.222521 -0.689378 0.689378 -0.222521 -0.552838 0.552838 -0.62349 
-0.306802 0.306802 -0.900969 -0.433884 5.31354e-017 0.900969 -0.781832 9.57467e-017 0.62349 
-0.974928 1.19394e-016 0.222521 -0.974928 1.19394e-016 -0.222521 -0.781832 9.57467e-017 -0.62349 
-0.433884 5.31354e-017 -0.900969 -0.306802 -0.306802 0.900969 -0.552838 -0.552838 0.62349 
-0.689378 -0.689378 0.222521 -0.689378 -0.689378 -0.222521 -0.552838 -0.552838 -0.62349 
-0.306802 -0.306802 -0.900969 -7.97031e-017 -0.433884 0.900969 -1.4362e-016 -0.781832 0.62349 
-1.79091e-016 -0.974928 0.222521 -1.79091e-016 -0.974928 -0.222521 -1.4362e-016 -0.781832 -0.62349 
-7.97031e-017 -0.433884 -0.900969 0.306802 -0.306802 0.900969 0.552838 -0.552838 0.62349 
0.689378 -0.689378 0.222521 0.689378 -0.689378 -0.222521 0.552838 -0.552838 -0.62349 
0.306802 -0.306802 -0.900969 0 0 1 0 0 -1 
0.433884 0 0.900969 0.781832 0 0.62349 0.974928 0 0.222521 
0.974928 0 -0.222521 0.781832 0 -0.62349 0.433884 0 -0.900969 
0.306802 0.306802 0.900969 0.552838 0.552838 0.62349 0.689378 0.689378 0.222521 
0.689378 0.689378 -0.222521 0.552838 0.552838 -0.62349 0.306802 0.306802 -0.900969 
2.65677e-017 0.433884 0.900969 4.78734e-017 0.781832 0.62349 5.96971e-017 0.974928 0.222521 
5.96971e-017 0.974928 -0.222521 4.78734e-017 0.781832 -0.62349 2.65677e-017 0.433884 -0.900969 
-0.306802 0.306802 0.900969 -0.552838 0.552838 0.62349 -0.689378 0.689378 0.222521 
-0.689378 0.689378 -0.222521 -0.552838 0.552838 -0.62349 -0.306802 0.306802 -0.900969 
-0.433884 5.31354e-017 0.900969 -0.781832 9.57467e-017 0.62349 -0.974928 1.19394e-016 0.222521 
-0.974928 1.19394e-016 -0.222521 -0.781832 9.57467e-017 -0.62349 -0.433884 5.31354e-017 -0.900969 
-0.306802 -0.306802 0.900969 -0.552838 -0.552838 0.62349 -0.689378 -0.689378 0.222521 
-0.689378 -0.689378 -0.222521 -0.552838 -0.552838 -0.62349 -0.306802 -0.306802 -0.900969 
-7.97031e-017 -0.433884 0.900969 -1.4362e-016 -0.781832 0.62349 -1.79091e-016 -0.974928 0.222521 
-1.79091e-016 -0.974928 -0.222521 -1.4362e-016 -0.781832 -0.62349 -7.97031e-017 -0.433884 -0.900969 
0.306802 -0.306802 0.900969 0.552838 -0.552838 0.62349 0.689378 -0.689378 0.222521 
0.689378 -0.689378 -0.222521 0.552838 -0.552838 -0.62349 0.306802 -0.306802 -0.900969 
0 0 1 0 0 -1 0.433884 0 0.900969 
0.781832 0 0.62349 0.974928 0 0.222521 0.974928 0 -0.222521 
0.781832 0 -0.62349 0.433884 0 -0.900969 0.306802 0.306802 0.900969 
0.552838 0.552838 0.62349 0.689378 0.689378 0.222521 0.689378 0.689378 -0.222521 
0.552838 0.552838 -0.62349 0.306802 0.306802 -0.900969 2.65677e-017 0.433884 0.900969 
4.78734e-017 0.781832 0.62349 5.96971e-017 0.974928 0.222521 5.96971e-017 0.974928 -0.222521 
4.78734e-017 0.781832 -0.62349 2.65677e-017 0.433884 -0.900969 -0.306802 0.306802 0.900969 
-0.552838 0.552838 0.62349 -0.689378 0.689378 0.222521 -0.689378 0.689378 -0.222521 
-0.552838 0.552838 -0.62349 -0.306802 0.306802 -0.900969 -0.433884 5.31354e-017 0.900969 
-0.781832 9.57467e-017 0.62349 -0.974928 1.19394e-016 0.222521 -0.974928 1.19394e-016 -0.222521 
-0.781832 9.57467e-017 -0.62349 -0.433884 5.31354e-017 -0.900969 -0.306802 -0.306802 0.900969 
-0.552838 -0.552838 0.62349 -0.689378 -0.689378 0.222521 -0.689378 -0.689378 -0.222521 
-0.552838 -0.552838 -0.62349 -0.306802 -0.306802 -0.900969 -7.97031e-017 -0.433884 0.900969 
-1.4362e-016 -0.781832 0.62349 -1.79091e-016 -0.974928 0.222521 -1.79091e-016 -0.974928 -0.222521 
-1.4362e-016 -0.781832 -0.62349 -7.97031e-017 -0.433884 -0.900969 0.306802 -0.306802 0.900969 
0.552838 -0.552838 0.62349 0.689378 -0.689378 0.222521 0.689378 -0.689378 -0.222521 
0.552838 -0.552838 -0.62349 0.306802 -0.306802 -0.900969 0 0 1 
0 0 -1 0.433884 0 0.900969 0.781832 0 0.62349 
0.974928 0 0.222521 0.974928 0 -0.222521 0.781832 0 -0.62349 
0.433884 0 -0.900969 0.306802 0.306802 0.900969 0.552838 0.552838 0.62349 
0.689378 0.689378 0.222521 0.689378 0.689378 -0.222521 0.552838 0.552838 -0.62349 
0.306802 0.306802 -0.900969 2.65677e-017 0.433884 0.900969 4.78734e-017 0.781832 0.62349 
5.96971e-017 0.974928 0.222521 5.96971e-017 0.974928 -0.222521 4.78734e-017 0.781832 -0.62349 
2.65677e-017 0.433884 -0.900969 -0.306802 0.306802 0.900969 -0.552838 0.552838 0.62349 
-0.689378 0.689378 0.222521 -0.689378 0.689378 -0.222521 -0.552838 0.552838 -0.62349 
-0.306802 0.306802 -0.900969 -0.433884 5.31354e-017 0.900969 -0.781832 9.57467e-017 0.62349 
-0.974928 1.19394e-016 0.222521 -0.974928 1.19394e-016 -0.222521 -0.781832 9.57467e-017 -0.62349 
-0.433884 5.31354e-017 -0.900969 -0.306802 -0.306802 0.900969 -0.552838 -0.552838 0.62349 
-0.689378 -0.689378 0.222521 -0.689378 -0.689378 -0.222521 -0.552838 -0.552838 -0.62349 
-0.306802 -0.306802 -0.900969 -7.97031e-017 -0.433884 0.900969 -1.4362e-016 -0.781832 0.62349 
-1.79091e-016 -0.974928 0.222521 -1.79091e-016 -0.974928 -0.222521 -1.4362e-016 -0.781832 -0.62349 
-7.97031e-017 -0.433884 -0.900969 0.306802 -0.306802 0.900969 0.552838 -0.552838 0.62349 
0.689378 -0.689378 0.222521 0.689378 -0.689378 -0.222521 0.552838 -0.552838 -0.62349 
0.306802 -0.306802 -0.900969 0 0 1 0 0 -1 
0.433884 0 0.900969 0.781832 0 0.62349 0.974928 0 0.222521 
0.974928 0 -0.222521 0.781832 0 -0.62349 0.433884 0 -0.900969 
0.306802 0.306802 0.900969 0.552838 0.552838 0.62349 0.689378 0.689378 0.222521 
0.689378 0.689378 -0.222521 0.552838 0.552838 -0.62349 0.306802 0.306802 -0.900969 
2.65677e-017 0.433884 0.900969 4.78734e-017 0.781832 0.62349 5.96971e-017 0.974928 0.222521 
5.96971e-017 0.974928 -0.222521 4.78734e-017 0.781832 -0.62349 2.65677e-017 0.433884 -0.900969 
-0.306802 0.306802 0.900969 -0.552838 0.552838 0.62349 -0.689378 0.689378 0.222521 
-0.689378 0.689378 -0.222521 -0.552838 0.552838 -0.62349 -0.306802 0.306802 -0.900969 
-0.433884 5.31354e-017 0.900969 -0.781832 9.57467e-017 0.62349 -0.974928 1.19394e-016 0.222521 
-0.974928 1.19394e-016 -0.222521 -0.781832 9.57467e-017 -0.62349 -0.433884 5.31354e-017 -0.900969 
-0.306802 -0.306802 0.900969 -0.552838 -0.552838 0.62349 -0.689378 -0.689378 0.222521 
-0.689378 -0.689378 -0.222521 -0.552838 -0.552838 -0.62349 -0.306802 -0.306802 -0.900969 
-7.97031e-017 -0.433884 0.900969 -1.4362e-016 -0.781832 0.62349 -1.79091e-016 -0.974928 0.222521 
-1.79091e-016 -0.974928 -0.222521 -1.4362e-016 -0.781832 -0.62349 -7.97031e-017 -0.433884 -0.900969 
0.306802 -0.306802 0.900969 0.552838 -0.552838 0.62349 0.689378 -0.689378 0.222521 
0.689378 -0.689378 -0.222521 0.552838 -0.552838 -0.62349 0.306802 -0.306802 -0.900969 
0 0 1 0 0 -1 0.433884 0 0.900969 
0.781832 0 0.62349 0.974928 0 0.222521 0.974928 0 -0.222521 
0.781832 0 -0.62349 0.433884 0 -0.900969 0.306802 0.306802 0.900969 
0.552838 0.552838 0.62349 0.689378 0.689378 0.222521 0.689378 0.689378 -0.222521 
0.552838 0.552838 -0.62349 0.306802 0.306802 -0.900969 2.65677e-017 0.433884 0.900969 
4.78734e-017 0.781832 0.62349 5.96971e-017 0.974928 0.222521 5.96971e-017 0.974928 -0.222521 
4.78734e-017 0.781832 -0.62349 2.65677e-017 0.433884 -0.900969 -0.306802 0.306802 0.900969 
-0.552838 0.552838 0.62349 -0.689378 0.689378 0.222521 -0.689378 0.689378 -0.222521 