# vtk DataFile Version 3.0
vtk output
ASCII
DATASET POLYDATA
POINTS 1150 float
442 444 336.5 442 444 329.5 443.519 444 336.153 
444.736 444 335.182 445.412 444 333.779 445.412 444 332.221 
444.736 444 330.818 443.519 444 329.847 443.074 445.074 336.153 
443.935 445.935 335.182 444.413 446.413 333.779 444.413 446.413 332.221 
443.935 445.935 330.818 443.074 445.074 329.847 442 445.519 336.153 
442 446.736 335.182 442 447.412 333.779 442 447.412 332.221 
442 446.736 330.818 442 445.519 329.847 440.926 445.074 336.153 
440.065 445.935 335.182 439.587 446.413 333.779 439.587 446.413 332.221 
440.065 445.935 330.818 440.926 445.074 329.847 440.481 444 336.153 
439.264 444 335.182 438.588 444 333.779 438.588 444 332.221 
439.264 444 330.818 440.481 444 329.847 440.926 442.926 336.153 
440.065 442.065 335.182 439.587 441.587 333.779 439.587 441.587 332.221 
440.065 442.065 330.818 440.926 442.926 329.847 442 442.481 336.153 
442 441.264 335.182 442 440.588 333.779 442 440.588 332.221 
442 441.264 330.818 442 442.481 329.847 443.074 442.926 336.153 
443.935 442.065 335.182 444.413 441.587 333.779 444.413 441.587 332.221 
443.935 442.065 330.818 443.074 442.926 329.847 449 391 263.5 
449 391 256.5 450.519 391 263.153 451.736 391 262.182 
452.412 391 260.779 452.412 391 259.221 451.736 391 257.818 
450.519 391 256.847 450.074 392.074 263.153 450.935 392.935 262.182 
451.413 393.413 260.779 451.413 393.413 259.221 450.935 392.935 257.818 
450.074 392.074 256.847 449 392.519 263.153 449 393.736 262.182 
449 394.412 260.779 449 394.412 259.221 449 393.736 257.818 
449 392.519 256.847 447.926 392.074 263.153 447.065 392.935 262.182 
446.587 393.413 260.779 446.587 393.413 259.221 447.065 392.935 257.818 
447.926 392.074 256.847 447.481 391 263.153 446.264 391 262.182 
445.588 391 260.779 445.588 391 259.221 446.264 391 257.818 
447.481 391 256.847 447.926 389.926 263.153 447.065 389.065 262.182 
446.587 388.587 260.779 446.587 388.587 259.221 447.065 389.065 257.818 
447.926 389.926 256.847 449 389.481 263.153 449 388.264 262.182 
449 387.588 260.779 449 387.588 259.221 449 388.264 257.818 
449 389.481 256.847 450.074 389.926 263.153 450.935 389.065 262.182 
451.413 388.587 260.779 451.413 388.587 259.221 450.935 389.065 257.818 
450.074 389.926 256.847 430 431 298.5 430 431 291.5 
431.519 431 298.153 432.736 431 297.182 433.412 431 295.779 
433.412 431 294.221 432.736 431 292.818 431.519 431 291.847 
431.074 432.074 298.153 431.935 432.935 297.182 432.413 433.413 295.779 
432.413 433.413 294.221 431.935 432.935 292.818 431.074 432.074 291.847 
430 432.519 298.153 430 433.736 297.182 430 434.412 295.779 
430 434.412 294.221 430 433.736 292.818 430 432.519 291.847 
428.926 432.074 298.153 428.065 432.935 297.182 427.587 433.413 295.779 
427.587 433.413 294.221 428.065 432.935 292.818 428.926 432.074 291.847 
428.481 431 298.153 427.264 431 297.182 426.588 431 295.779 
426.588 431 294.221 427.264 431 292.818 428.481 431 291.847 
428.926 429.926 298.153 428.065 429.065 297.182 427.587 428.587 295.779 
427.587 428.587 294.221 428.065 429.065 292.818 428.926 429.926 291.847 
430 429.481 298.153 430 428.264 297.182 430 427.588 295.779 
430 427.588 294.221 430 428.264 292.818 430 429.481 291.847 
431.074 429.926 298.153 431.935 429.065 297.182 432.413 428.587 295.779 
432.413 428.587 294.221 431.935 429.065 292.818 431.074 429.926 291.847 
448 436 356.5 448 436 349.5 449.519 436 356.153 
450.736 436 355.182 451.412 436 353.779 451.412 436 352.221 
450.736 436 350.818 449.519 436 349.847 449.074 437.074 356.153 
449.935 437.935 355.182 450.413 438.413 353.779 450.413 438.413 352.221 
449.935 437.935 350.818 449.074 437.074 349.847 448 437.519 356.153 
448 438.736 355.182 448 439.412 353.779 448 439.412 352.221 
448 438.736 350.818 448 437.519 349.847 446.926 437.074 356.153 
446.065 437.935 355.182 445.587 438.413 353.779 445.587 438.413 352.221 
446.065 437.935 350.818 446.926 437.074 349.847 446.481 436 356.153 
445.264 436 355.182 444.588 436 353.779 444.588 436 352.221 
445.264 436 350.818 446.481 436 349.847 446.926 434.926 356.153 
446.065 434.065 355.182 445.587 433.587 353.779 445.587 433.587 352.221 
446.065 434.065 350.818 446.926 434.926 349.847 448 434.481 356.153 
448 433.264 355.182 448 432.588 353.779 448 432.588 352.221 
448 433.264 350.818 448 434.481 349.847 449.074 434.926 356.153 
449.935 434.065 355.182 450.413 433.587 353.779 450.413 433.587 352.221 
449.935 434.065 350.818 449.074 434.926 349.847 444 336 281.5 
444 336 274.5 445.519 336 281.153 446.736 336 280.182 
447.412 336 278.779 447.412 336 277.221 446.736 336 275.818 
445.519 336 274.847 445.074 337.074 281.153 445.935 337.935 280.182 
446.413 338.413 278.779 446.413 338.413 277.221 445.935 337.935 275.818 
445.074 337.074 274.847 444 337.519 281.153 444 338.736 280.182 
444 339.412 278.779 444 339.412 277.221 444 338.736 275.818 
444 337.519 274.847 442.926 337.074 281.153 442.065 337.935 280.182 
441.587 338.413 278.779 441.587 338.413 277.221 442.065 337.935 275.818 
442.926 337.074 274.847 442.481 336 281.153 441.264 336 280.182 
440.588 336 278.779 440.588 336 277.221 441.264 336 275.818 
442.481 336 274.847 442.926 334.926 281.153 442.065 334.065 280.182 
441.587 333.587 278.779 441.587 333.587 277.221 442.065 334.065 275.818 
442.926 334.926 274.847 444 334.481 281.153 444 333.264 280.182 
444 332.588 278.779 444 332.588 277.221 444 333.264 275.818 
444 334.481 274.847 445.074 334.926 281.153 445.935 334.065 280.182 
446.413 333.587 278.779 446.413 333.587 277.221 445.935 334.065 275.818 
445.074 334.926 274.847 168 415 399.5 168 415 392.5 
169.519 415 399.153 170.736 415 398.182 171.412 415 396.779 
171.412 415 395.221 170.736 415 393.818 169.519 415 392.847 
169.074 416.074 399.153 169.935 416.935 398.182 170.413 417.413 396.779 
170.413 417.413 395.221 169.935 416.935 393.818 169.074 416.074 392.847 
168 416.519 399.153 168 417.736 398.182 168 418.412 396.779 
168 418.412 395.221 168 417.736 393.818 168 416.519 392.847 
166.926 416.074 399.153 166.065 416.935 398.182 165.587 417.413 396.779 
165.587 417.413 395.221 166.065 416.935 393.818 166.926 416.074 392.847 
166.481 415 399.153 165.264 415 398.182 164.588 415 396.779 
164.588 415 395.221 165.264 415 393.818 166.481 415 392.847 
166.926 413.926 399.153 166.065 413.065 398.182 165.587 412.587 396.779 
165.587 412.587 395.221 166.065 413.065 393.818 166.926 413.926 392.847 
168 413.481 399.153 168 412.264 398.182 168 411.588 396.779 
168 411.588 395.221 168 412.264 393.818 168 413.481 392.847 
169.074 413.926 399.153 169.935 413.065 398.182 170.413 412.587 396.779 
170.413 412.587 395.221 169.935 413.065 393.818 169.074 413.926 392.847 
508 389 361.5 508 389 354.5 509.519 389 361.153 
510.736 389 360.182 511.412 389 358.779 511.412 389 357.221 
510.736 389 355.818 509.519 389 354.847 509.074 390.074 361.153 
509.935 390.935 360.182 510.413 391.413 358.779 510.413 391.413 357.221 
509.935 390.935 355.818 509.074 390.074 354.847 508 390.519 361.153 
508 391.736 360.182 508 392.412 358.779 508 392.412 357.221 
508 391.736 355.818 508 390.519 354.847 506.926 390.074 361.153 
506.065 390.935 360.182 505.587 391.413 358.779 505.587 391.413 357.221 
506.065 390.935 355.818 506.926 390.074 354.847 506.481 389 361.153 
505.264 389 360.182 504.588 389 358.779 504.588 389 357.221 
505.264 389 355.818 506.481 389 354.847 506.926 387.926 361.153 
506.065 387.065 360.182 505.587 386.587 358.779 505.587 386.587 357.221 
506.065 387.065 355.818 506.926 387.926 354.847 508 387.481 361.153 
508 386.264 360.182 508 385.588 358.779 508 385.588 357.221 
508 386.264 355.818 508 387.481 354.847 509.074 387.926 361.153 
509.935 387.065 360.182 510.413 386.587 358.779 510.413 386.587 357.221 
509.935 387.065 355.818 509.074 387.926 354.847 17 702 372.5 
17 702 365.5 18.5186 702 372.153 19.7364 702 371.182 
20.4122 702 369.779 20.4122 702 368.221 19.7364 702 366.818 
18.5186 702 365.847 18.0738 703.074 372.153 18.9349 703.935 371.182 
19.4128 704.413 369.779 19.4128 704.413 368.221 18.9349 703.935 366.818 
18.0738 703.074 365.847 17 703.519 372.153 17 704.736 371.182 
17 705.412 369.779 17 705.412 368.221 17 704.736 366.818 
17 703.519 365.847 15.9262 703.074 372.153 15.0651 703.935 371.182 
14.5872 704.413 369.779 14.5872 704.413 368.221 15.0651 703.935 366.818 
15.9262 703.074 365.847 15.4814 702 372.153 14.2636 702 371.182 
13.5878 702 369.779 13.5878 702 368.221 14.2636 702 366.818 
15.4814 702 365.847 15.9262 700.926 372.153 15.0651 700.065 371.182 
14.5872 699.587 369.779 14.5872 699.587 368.221 15.0651 700.065 366.818 
15.9262 700.926 365.847 17 700.481 372.153 17 699.264 371.182 
17 698.588 369.779 17 698.588 368.221 17 699.264 366.818 
17 700.481 365.847 18.0738 700.926 372.153 18.9349 700.065 371.182 
19.4128 699.587 369.779 19.4128 699.587 368.221 18.9349 700.065 366.818 
18.0738 700.926 365.847 63 17 320.5 63 17 313.5 
64.5186 17 320.153 65.7364 17 319.182 66.4122 17 317.779 
66.4122 17 316.221 65.7364 17 314.818 64.5186 17 313.847 
64.0738 18.0738 320.153 64.9349 18.9349 319.182 65.4128 19.4128 317.779 
65.4128 19.4128 316.221 64.9349 18.9349 314.818 64.0738 18.0738 313.847 
63 18.5186 320.153 63 19.7364 319.182 63 20.4122 317.779 
63 20.4122 316.221 63 19.7364 314.818 63 18.5186 313.847 
61.9262 18.0738 320.153 61.0651 18.9349 319.182 60.5872 19.4128 317.779 
60.5872 19.4128 316.221 61.0651 18.9349 314.818 61.9262 18.0738 313.847 
61.4814 17 320.153 60.2636 17 319.182 59.5878 17 317.779 
59.5878 17 316.221 60.2636 17 314.818 61.4814 17 313.847 
61.9262 15.9262 320.153 61.0651 15.0651 319.182 60.5872 14.5872 317.779 
60.5872 14.5872 316.221 61.0651 15.0651 314.818 61.9262 15.9262 313.847 
63 15.4814 320.153 63 14.2636 319.182 63 13.5878 317.779 
63 13.5878 316.221 63 14.2636 314.818 63 15.4814 313.847 
64.0738 15.9262 320.153 64.9349 15.0651 319.182 65.4128 14.5872 317.779 
65.4128 14.5872 316.221 64.9349 15.0651 314.818 64.0738 15.9262 313.847 
229 398 359.5 229 398 352.5 230.519 398 359.153 
[...]
POINT_DATA 1150
SCALARS scales float
LOOKUP_TABLE default
7 7 7 7 7 7 7 7 7 
7 7 7 7 7 7 7 7 7 
7 7 7 7 7 7 7 7 7 
7 7 7 7 7 7 7 7 7 
7 7 7 7 7 7 7 7 7 
7 7 7 7 7 7 7 7 7 
7 7 7 7 7 7 7 7 7 
7 7 7 7 7 7 7 7 7 
7 7 7 7 7 7 7 7 7 
7 7 7 7 7 7 7 7 7 
7 7 7 7 7 7 7 7 7 
7 7 7 7 7 7 7 7 7 
7 7 7 7 7 7 7 7 7 
7 7 7 7 7 7 7 7 7 
7 7 7 7 7 7 7 7 7 
7 7 7 7 7 7 7 7 7 
7 7 7 7 7 7 7 7 7 
7 7 7 7 7 7 7 7 7 
7 7 7 7 7 7 7 7 7 
7 7 7 7 7 7 7 7 7 
7 7 7 7 7 7 7 7 7 
7 7 7 7 7 7 7 7 7 
7 7 7 7 7 7 7 7 7 
7 7 7 7 7 7 7 7 7 
7 7 7 7 7 7 7 7 7 
7 7 7 7 7 7 7 7 7 
7 7 7 7 7 7 7 7 7 
7 7 7 7 7 7 7 7 7 
7 7 7 7 7 7 7 7 7 
7 7 7 7 7 7 7 7 7 
7 7 7 7 7 7 7 7 7 
7 7 7 7 7 7 7 7 7 
7 7 7 7 7 7 7 7 7 
7 7 7 7 7 7 7 7 7 
7 7 7 7 7 7 7 7 7 
7 7 7 7 7 7 7 7 7 
7 7 7 7 7 7 7 7 7 
7 7 7 7 7 7 7 7 7 
7 7 7 7 7 7 7 7 7 
7 7 7 7 7 7 7 7 7 
7 7 7 7 7 7 7 7 7 
7 7 7 7 7 7 7 7 7 
7 7 7 7 7 7 7 7 7 
7 7 7 7 7 7 7 7 7 
7 7 7 7 7 7 7 7 7 
7 7 7 7 7 7 7 7 7 
7 7 7 7 7 7 7 7 7 
7 7 7 7 7 7 7 7 7 
7 7 7 7 7 7 7 7 7 
7 7 7 7 7 7 7 7 7 
7 7 7 7 7 7 7 7 7 
7 7 7 7 7 7 7 7 7 
7 7 7 7 7 7 7 7 7 
7 7 7 7 7 7 7 7 7 
7 7 7 7 7 7 7 7 7 
7 7 7 7 7 7 7 7 7 
7 7 7 7 7 7 7 7 7 
7 7 7 7 7 7 7 7 7 
7 7 7 7 7 7 7 7 7 
7 7 7 7 7 7 7 7 7 
7 7 7 7 7 7 7 7 7 
7 7 7 7 7 7 7 7 7 
7 7 7 7 7 7 7 7 7 
7 7 7 7 7 7 7 7 7 
7 7 7 7 7 7 7 7 7 
7 7 7 7 7 7 7 7 7 
7 7 7 7 7 7 7 7 7 
7 7 7 7 7 7 7 7 7 
7 7 7 7 7 7 7 7 7 
7 7 7 7 7 7 7 7 7 
7 7 7 7 7 7 7 7 7 
7 7 7 7 7 7 7 7 7 
7 7 7 7 7 7 7 7 7 
7 7 7 7 7 7 7 7 7 
7 7 7 7 7 7 7 7 7 
7 7 7 7 7 7 7 7 7 
7 7 7 7 7 7 7 7 7 
7 7 7 7 7 7 7 7 7 
7 7 7 7 7 7 7 7 7 
7 7 7 7 7 7 7 7 7 
7 7 7 7 7 7 7 7 7 
7 7 7 7 7 7 7 7 7 
7 7 7 7 7 7 7 7 7 
7 7 7 7 7 7 7 7 7 
7 7 7 7 7 7 7 7 7 
7 7 7 7 7 7 7 7 7 
7 7 7 7 7 7 7 7 7 
7 7 7 7 7 7 7 7 7 
7 7 7 7 7 7 7 7 7 
7 7 7 7 7 7 7 7 7 
7 7 7 7 7 7 7 7 7 
7 7 7 7 7 7 7 7 7 
7 7 7 7 7 7 7 7 7 
7 7 7 7 7 7 7 7 7 
7 7 7 7 7 7 7 7 7 
7 7 7 7 7 7 7 7 7 
7 7 7 7 7 7 7 7 7 
7 7 7 7 7 7 7 7 7 
7 7 7 7 7 7 7 7 7 
7 7 7 7 7 7 7 7 7 
7 7 7 7 7 7 7 7 7 
7 7 7 7 7 7 7 7 7 
7 7 7 7 7 7 7 7 7 
7 7 7 7 7 7 7 7 7 
7 7 7 7 7 7 7 7 7 
7 7 7 7 7 7 7 7 7 
7 7 7 7 7 7 7 7 7 
7 7 7 7 7 7 7 7 7 
7 7 7 7 7 7 7 7 7 
7 7 7 7 7 7 7 7 7 
7 7 7 7 7 7 7 7 7 
7 7 7 7 7 7 7 7 7 
7 7 7 7 7 7 7 7 7 
7 7 7 7 7 7 7 7 7 
7 7 7 7 7 7 7 7 7 
7 7 7 7 7 7 7 7 7 
7 7 7 7 7 7 7 7 7 
7 7 7 7 7 7 7 7 7 
7 7 7 7 7 7 7 7 7 
7 7 7 7 7 7 7 7 7 
7 7 7 7 7 7 7 7 7 
7 7 7 7 7 7 7 7 7 
7 7 7 7 7 7 7 7 7 
7 7 7 7 7 7 7 7 7 
7 7 7 7 7 7 7 7 7 
7 7 7 7 7 7 7 7 7 
7 7 7 7 7 7 7 7 7 
7 7 7 7 7 7 7 
NORMALS Normals float
0 0 1 0 0 -1 0.433884 0 0.900969 
0.781832 0 0.62349 0.974928 0 0.222521 0.974928 0 -0.222521 
0.781832 0 -0.62349 0.433884 0 -0.900969 0.306802 0.306802 0.900969 
0.552838 0.552838 0.62349 0.689378 0.689378 0.222521 0.689378 0.689378 -0.222521 
0.552838 0.552838 -0.62349 0.306802 0.306802 -0.900969 2.65677e-017 0.433884 0.900969 
4.78734e-017 0.781832 0.62349 5.96971e-017 0.974928 0.222521 5.96971e-017 0.974928 -0.222521 
4.78734e-017 0.781832 -0.62349 2.65677e-017 0.433884 -0.900969 -0.306802 0.306802 0.900969 
-0.552838 0.552838 0.62349 -0.689378 0.689378 0.222521 -0.689378 0.689378 -0.222521 
-0.552838 0.552838 -0.62349 -0.306802 0.306802 -0.900969 -0.433884 5.31354e-017 0.900969 
-0.781832 9.57467e-017 0.62349 -0.974928 1.19394e-016 0.222521 -0.974928 1.19394e-016 -0.222521 
-0.781832 9.57467e-017 -0.62349 -0.433884 5.31354e-017 -0.900969 -0.306802 -0.306802 0.900969 
-0.552838 -0.552838 0.62349 -0.689378 -0.689378 0.222521 -0.689378 -0.689378 -0.222521 
-0.552838 -0.552838 -0.62349 -0.306802 -0.306802 -0.900969 -7.97031e-017 -0.433884 0.900969 
-1.4362e-016 -0.781832 0.62349 -1.79091e-016 -0.974928 0.222521 -1.79091e-016 -0.974928 -0.222521 
-1.4362e-016 -0.781832 -0.62349 -7.97031e-017 -0.433884 -0.900969 0.306802 -0.306802 0.900969 
0.552838 -0.552838 0.62349 0.689378 -0.689378 0.222521 0.689378 -0.689378 -0.222521 
0.552838 -0.552838 -0.62349 0.306802 -0.306802 -0.900969 0 0 1 
0 0 -1 0.433884 0 0.900969 0.781832 0 0.62349 
0.974928 0 0.222521 0.974928 0 -0.222521 0.781832 0 -0.62349 
0.433884 0 -0.900969 0.306802 0.306802 0.900969 0.552838 0.552838 0.62349 
0.689378 0.689378 0.222521 0.689378 0.689378 -0.222521 0.552838 0.552838 -0.62349 
0.306802 0.306802 -0.900969 2.65677e-017 0.433884 0.900969 4.78734e-017 0.781832 0.62349 
5.96971e-017 0.974928 0.222521 5.96971e-017 0.974928 -0.222521 4.78734e-017 0.781832 -0.62349 
2.65677e-017 0.433884 -0.900969 -0.306802 0.306802 0.900969 -0.552838 0.552838 0.62349 
-0.689378 0.689378 0.222521 -0.689378 0.689378 -0.222521 -0.552838 0.552838 -0.62349 
-0.306802 0.306802 -0.900969 -0.433884 5.31354e-017 0.900969 -0.781832 9.57467e-017 0.62349 
-0.974928 1.19394e-016 0.222521 -0.974928 1.19394e-016 -0.222521 -0.781832 9.57467e-017 -0.62349 
-0.433884 5.31354e-017 -0.900969 -0.306802 -0.306802 0.900969 -0.552838 -0.552838 0.62349 
-0.689378 -0.689378 0.222521 -0.689378 -0.689378 -0.222521 -0.552838 -0.552838 -0.62349 
-0.306802 -0.306802 -0.900969 -7.97031e-017 -0.433884 0.900969 -1.4362e-016 -0.781832 0.62349 
-1.79091e-016 -0.974928 0.222521 -1.79091e-016 -0.974928 -0.222521 -1.4362e-016 -0.781832 -0.62349 
-7.97031e-017 -0.433884 -0.900969 0.306802 -0.306802 0.900969 0.552838 -0.552838 0.62349 
0.689378 -0.689378 0.222521 0.689378 -0.689378 -0.222521 0.552838 -0.552838 -0.62349 
0.306802 -0.306802 -0.900969 0 0 1 0 0 -1 
0.433884 0 0.900969 0.781832 0 0.62349 0.974928 0 0.222521 
0.974928 0 -0.222521 0.781832 0 -0.62349 0.433884 0 -0.900969 
0.306802 0.306802 0.900969 0.552838 0.552838 0.62349 0.689378 0.689378 0.222521 
0.689378 0.689378 -0.222521 0.552838 0.552838 -0.62349 0.306802 0.306802 -0.900969 
2.65677e-017 0.433884 0.900969 4.78734e-017 0.781832 0.62349 5.96971e-017 0.974928 0.222521 
5.96971e-017 0.974928 -0.222521 4.78734e-017 0.781832 -0.62349 2.65677e-017 0.433884 -0.900969 
-0.306802 0.306802 0.900969 -0.552838 0.552838 0.62349 -0.689378 0.689378 0.222521 
-0.689378 0.689378 -0.222521 -0.552838 0.552838 -0.62349 -0.306802 0.306802 -0.900969 
-0.433884 5.31354e-017 0.900969 -0.781832 9.57467e-017 0.62349 -0.974928 1.19394e-016 0.222521 
-0.974928 1.19394e-016 -0.222521 -0.781832 9.57467e-017 -0.62349 -0.433884 5.31354e-017 -0.900969 
-0.306802 -0.306802 0.900969 -0.552838 -0.552838 0.62349 -0.689378 -0.689378 0.222521 
-0.689378 -0.689378 -0.222521 -0.552838 -0.552838 -0.62349 -0.306802 -0.306802 -0.900969 
-7.97031e-017 -0.433884 0.900969 -1.4362e-016 -0.781832 0.62349 -1.79091e-016 -0.974928 0.222521 
-1.79091e-016 -0.974928 -0.222521 -1.4362e-016 -0.781832 -0.62349 -7.97031e-017 -0.433884 -0.900969 
0.306802 -0.306802 0.900969 0.552838 -0.552838 0.62349 0.689378 -0.689378 0.222521 
0.689378 -0.689378 -0.222521 0.552838 -0.552838 -0.62349 0.306802 -0.306802 -0.900969 
0 0 1 0 0 -1 0.433884 0 0.900969 
0.781832 0 0.62349 0.974928 0 0.222521 0.974928 0 -0.222521 
0.781832 0 -0.62349 0.433884 0 -0.900969 0.306802 0.306802 0.900969 
0.552838 0.552838 0.62349 0.689378 0.689378 0.222521 0.689378 0.689378 -0.222521 
0.552838 0.552838 -0.62349 0.306802 0.306802 -0.900969 2.65677e-017 0.433884 0.900969 
4.78734e-017 0.781832 0.62349 5.96971e-017 0.974928 0.222521 5.96971e-017 0.974928 -0.222521 
4.78734e-017 0.781832 -0.62349 2.65677e-017 0.433884 -0.900969 -0.306802 0.306802 0.900969 
-0.552838 0.552838 0.62349 -0.689378 0.689378 0.222521 -0.689378 0.689378 -0.222521 
-0.552838 0.552838 -0.62349 -0.306802 0.306802 -0.900969 -0.433884 5.31354e-017 0.900969 
-0.781832 9.57467e-017 0.62349 -0.974928 1.19394e-016 0.222521 -0.974928 1.19394e-016 -0.222521 
-0.781832 9.57467e-017 -0.62349 -0.433884 5.31354e-017 -0.900969 -0.306802 -0.306802 0.900969 
-0.552838 -0.552838 0.62349 -0.689378 -0.689378 0.222521 -0.689378 -0.689378 -0.222521 
-0.552838 -0.552838 -0.62349 -0.306802 -0.306802 -0.900969 -7.97031e-017 -0.433884 0.900969 
-1.4362e-016 -0.781832 0.62349 -1.79091e-016 -0.974928 0.222521 -1.79091e-016 -0.974928 -0.222521 
-1.4362e-016 -0.781832 -0.62349 -7.97031e-017 -0.433884 -0.900969 0.306802 -0.306802 0.900969 
0.552838 -0.552838 0.62349 0.689378 -0.689378 0.222521 0.689378 -0.689378 -0.222521 
0.552838 -0.552838 -0.62349 0.306802 -0.306802 -0.900969 0 0 1 
0 0 -1 0.433884 0 0.900969 0.781832 0 0.62349 
0.974928 0 0.222521 0.974928 0 -0.222521 0.781832 0 -0.62349 
0.433884 0 -0.900969 0.306802 0.306802 0.900969 0.552838 0.552838 0.62349 
0.689378 0.689378 0.222521 0.689378 0.689378 -0.222521 0.552838 0.552838 -0.62349 
0.306802 0.306802 -0.900969 2.65677e-017 0.433884 0.900969 4.78734e-017 0.781832 0.62349 
5.96971e-017 0.974928 0.222521 5.96971e-017 0.974928 -0.222521 4.78734e-017 0.781832 -0.62349 
2.65677e-017 0.433884 -0.900969 -0.306802 0.306802 0.900969 -0.552838 0.552838 0.62349 
-0.689378 0.689378 0.222521 -0.689378 0.689378 -0.222521 -0.552838 0.552838 -0.62349 
-0.306802 0.306802 -0.900969 -0.433884 5.31354e-017 0.900969 -0.781832 9.57467e-017 0.62349 
-0.974928 1.19394e-016 0.222521 -0.974928 1.19394e-016 -0.222521 -0.781832 9.57467e-017 -0.62349 
-0.433884 5.31354e-017 -0.900969 -0.306802 -0.306802 0.900969 -0.552838 -0.552838 0.62349 
-0.689378 -0.689378 0.222521 -0.689378 -0.689378 -0.222521 -0.552838 -0.552838 -0.62349 
-0.306802 -0.306802 -0.900969 -7.97031e-017 -0.433884 0.900969 -1.4362e-016 -0.781832 0.62349 
-1.79091e-016 -0.974928 0.222521 -1.79091e-016 -0.974928 -0.222521 -1.4362e-016 -0.781832 -0.62349 
-7.97031e-017 -0.433884 -0.900969 0.306802 -0.306802 0.900969 0.552838 -0.552838 0.62349 
0.689378 -0.689378 0.222521 0.689378 -0.689378 -0.222521 0.552838 -0.552838 -0.62349 
0.306802 -0.306802 -0.900969 0 0 1 0 0 -1 
0.433884 0 0.900969 0.781832 0 0.62349 0.974928 0 0.222521 
0.974928 0 -0.222521 0.781832 0 -0.62349 0.433884 0 -0.900969 
0.306802 0.306802 0.900969 0.552838 0.552838 0.62349 0.689378 0.689378 0.222521 
0.689378 0.689378 -0.222521 0.552838 0.552838 -0.62349 0.306802 0.306802 -0.900969 
2.65677e-017 0.433884 0.900969 4.78734e-017 0.781832 0.62349 5.96971e-017 0.974928 0.222521 
5.96971e-017 0.974928 -0.222521 4.78734e-017 0.781832 -0.62349 2.65677e-017 0.433884 -0.900969 
-0.306802 0.306802 0.900969 -0.552838 0.552838 0.62349 -0.689378 0.689378 0.222521 
-0.689378 0.689378 -0.222521 -0.552838 0.552838 -0.62349 -0.306802 0.306802 -0.900969 
-0.433884 5.31354e-017 0.900969 -0.781832 9.57467e-017 0.62349 -0.974928 1.19394e-016 0.222521 
-0.974928 1.19394e-016 -0.222521 -0.781832 9.57467e-017 -0.62349 -0.433884 5.31354e-017 -0.900969 
-0.306802 -0.306802 0.900969 -0.552838 -0.552838 0.62349 -0.689378 -0.689378 0.222521 
-0.689378 -0.689378 -0.222521 -0.552838 -0.552838 -0.62349 -0.306802 -0.306802 -0.900969 
-7.97031e-017 -0.433884 0.900969 -1.4362e-016 -0.781832 0.62349 -1.79091e-016 -0.974928 0.222521 
-1.79091e-016 -0.974928 -0.222521 -1.4362e-016 -0.781832 -0.62349 -7.97031e-017 -0.433884 -0.900969 
0.306802 -0.306802 0.900969 0.552838 -0.552838 0.62349 0.689378 -0.689378 0.222521 
0.689378 -0.689378 -0.222521 0.552838 -0.552838 -0.62349 0.306802 -0.306802 -0.900969 
0 0 1 0 0 -1 0.433884 0 0.900969 
0.781832 0 0.62349 0.974928 0 0.222521 0.974928 0 -0.222521 
0.781832 0 -0.62349 0.433884 0 -0.900969 0.306802 0.306802 0.900969 
0.552838 0.552838 0.62349 0.689378 0.689378 0.222521 0.689378 0.689378 -0.222521 
0.552838 0.552838 -0.62349 0.306802 0.306802 -0.900969 2.65677e-017 0.433884 0.900969 
4.78734e-017 0.781832 0.62349 5.96971e-017 0.974928 0.222521 5.96971e-017 0.974928 -0.222521 
4.78734e-017 0.781832 -0.62349 2.65677e-017 0.433884 -0.900969 -0.306802 0.306802 0.900969 
-0.552838 0.552838 0.62349 -0.689378 0.689378 0.222521 -0.689378 0.689378 -0.222521 
-0.552838 0.552838 -0.62349 -0.306802 0.306802 -0.900969 -0.433884 5.31354e-017 0.900969 
-0.781832 9.57467e-017 0.62349 -0.974928 1.19394e-016 0.222521 -0.974928 1.19394e-016 -0.222521 
-0.781832 9.57467e-017 -0.62349 -0.433884 5.31354e-017 -0.900969 -0.306802 -0.306802 0.900969 
-0.552838 -0.552838 0.62349 -0.689378 -0.689378 0.222521 -0.689378 -0.689378 -0.222521 
-0.552838 -0.552838 -0.62349 -0.306802 -0.306802 -0.900969 -7.97031e-017 -0.433884 0.900969 
-1.4362e-016 -0.781832 0.62349 -1.79091e-016 -0.974928 0.222521 -1.79091e-016 -0.974928 -0.222521 
-1.4362e-016 -0.781832 -0.62349 -7.97031e-017 -0.433884 -0.900969 0.306802 -0.306802 0.900969 
0.552838 -0.552838 0.62349 0.689378 -0.689378 0.222521 0.689378 -0.689378 -0.222521 
0.552838 -0.552838 -0.62349 0.306802 -0.306802 -0.900969 0 0 1 
0 0 -1 0.433884 0 0.900969 0.781832 0 0.62349 
0.974928 0 0.222521 0.974928 0 -0.222521 0.781832 0 -0.62349 
0.433884 0 -0.900969 0.306802 0.306802 0.900969 0.552838 0.552838 0.62349 
0.689378 0.689378 0.222521 0.689378 0.689378 -0.222521 0.552838 0.552838 -0.62349 
0.306802 0.306802 -0.900969 2.65677e-017 0.433884 0.900969 4.78734e-017 0.781832 0.62349 
5.96971e-017 0.974928 0.222521 5.96971e-017 0.974928 -0.222521 4.78734e-017 0.781832 -0.62349 
2.65677e-017 0.433884 -0.900969 -0.306802 0.306802 0.900969 -0.552838 0.552838 0.62349 
-0.689378 0.689378 0.222521 -0.689378 0.689378 -0.222521 -0.552838 0.552838 -0.62349 
-0.306802 0.306802 -0.900969 -0.433884 5.31354e-017 0.900969 -0.781832 9.57467e-017 0.62349 
-0.974928 1.19394e-016 0.222521 -0.974928 1.19394e-016 -0.222521 -0.781832 9.57467e-017 -0.62349 
-0.433884 5.31354e-017 -0.900969 -0.306802 -0.306802 0.900969 -0.552838 -0.552838 0.62349 
-0.689378 -0.689378 0.222521 -0.689378 -0.689378 -0.222521 -0.552838 -0.552838 -0.62349 
-0.306802 -0.306802 -0.900969 -7.97031e-017 -0.433884 0.900969 -1.4362e-016 -0.781832 0.62349 
-1.79091e-016 -0.974928 0.222521 -1.79091e-016 -0.974928 -0.222521 -1.4362e-016 -0.781832 -0.62349 
-7.97031e-017 -0.433884 -0.900969 0.306802 -0.306802 0.900969 0.552838 -0.552838 0.62349 
0.689378 -0.689378 0.222521 0.689378 -0.689378 -0.222521 0.552838 -0.552838 -0.62349 
0.306802 -0.306802 -0.900969 0 0 1 0 0 -1 
0.433884 0 0.900969 0.781832 0 0.62349 0.974928 0 0.222521 
0.974928 0 -0.222521 0.781832 0 -0.62349 0.433884 0 -0.900969 
0.306802 0.306802 0.900969 0.552838 0.552838 0.62349 0.689378 0.689378 0.222521 
0.689378 0.689378 -0.222521 0.552838 0.552838 -0.62349 0.306802 0.306802 -0.900969 
2.65677e-017 0.433884 0.900969 4.78734e-017 0.781832 0.62349 5.96971e-017 0.974928 0.222521 
5.96971e-017 0.974928 -0.222521 4.78734e-017 0.781832 -0.62349 2.65677e-017 0.433884 -0.900969 
-0.306802 0.306802 0.900969 -0.552838 0.552838 0.62349 -0.689378 0.689378 0.222521 
-0.689378 0.689378 -0.222521 -0.552838 0.552838 -0.62349 -0.306802 0.306802 -0.900969 
-0.433884 5.31354e-017 0.900969 -0.781832 9.57467e-017 0.62349 -0.974928 1.19394e-016 0.222521 
-0.974928 1.19394e-016 -0.222521 -0.781832 9.57467e-017 -0.62349 -0.433884 5.31354e-017 -0.900969 
-0.306802 -0.306802 0.900969 -0.552838 -0.552838 0.62349 -0.689378 -0.689378 0.222521 
-0.689378 -0.689378 -0.222521 -0.552838 -0.552838 -0.62349 -0.306802 -0.306802 -0.900969 
-7.97031e-017 -0.433884 0.900969 -1.4362e-016 -0.781832 0.62349 -1.79091e-016 -0.974928 0.222521 
-1.79091e-016 -0.974928 -0.222521 -1.4362e-016 -0.781832 -0.62349 -7.97031e-017 -0.433884 -0.900969 
0.306802 -0.306802 0.900969 0.552838 -0.552838 0.62349 0.689378 -0.689378 0.222521 
0.689378 -0.689378 -0.222521 0.552838 -0.552838 -0.62349 0.306802 -0.306802 -0.900969 
0 0 1 0 0 -1 0.433884 0 0.900969 
0.781832 0 0.62349 0.974928 0 0.222521 0.974928 0 -0.222521 
0.781832 0 -0.62349 0.433884 0 -0.900969 0.306802 0.306802 0.900969 
0.552838 0.552838 0.62349 0.689378 0.689378 0.222521 0.689378 0.689378 -0.222521 
0.552838 0.552838 -0.62349 0.306802 0.306802 -0.900969 2.65677e-017 0.433884 0.900969 
4.78734e-017 0.781832 0.62349 5.96971e-017 0.974928 0.222521 5.96971e-017 0.974928 -0.222521 
4.78734e-017 0.781832 -0.62349 2.65677e-017 0.433884 -0.900969 -0.306802 0.306802 0.900969 
-0.552838 0.552838 0.62349 -0.689378 0.689378 0.222521 -0.689378 0.689378 -0.222521 
-0.552838 0.552838 -0.62349 -0.306802 0.306802 -0.900969 -0.433884 5.31354e-017 0.900969 
-0.781832 9.57467e-017 0.62349 -0.974928 1.19394e-016 0.222521 -0.974928 1.19394e-016 -0.222521 
-0.781832 9.57467e-017 -0.62349 -0.433884 5.31354e-017 -0.900969 -0.306802 -0.306802 0.900969 
-0.552838 -0.552838 0.62349 -0.689378 -0.689378 0.222521 -0.689378 -0.689378 -0.222521 
-0.552838 -0.552838 -0.62349 -0.306802 -0.306802 -0.900969 -7.97031e-017 -0.433884 0.900969 
-1.4362e-016 -0.781832 0.62349 -1.79091e-016 -0.974928 0.222521 -1.79091e-016 -0.974928 -0.222521 
-1.4362e-016 -0.781832 -0.62349 -7.97031e-017 -0.433884 -0.900969 0.306802 -0.306802 0.900969 
0.552838 -0.552838 0.62349 0.689378 -0.689378 0.222521 0.689378 -0.689378 -0.222521 
0.552838 -0.552838 -0.62349 0.306802 -0.306802 -0.900969 0 0 1 
0 0 -1 0.433884 0 0.900969 0.781832 0 0.62349 
0.974928 0 0.222521 0.974928 0 -0.222521 0.781832 0 -0.62349 
0.433884 0 -0.900969 0.306802 0.306802 0.900969 0.552838 0.552838 0.62349 
0.689378 0.689378 0.222521 0.689378 0.689378 -0.222521 0.552838 0.552838 -0.62349 
0.306802 0.306802 -0.900969 2.65677e-017 0.433884 0.900969 4.78734e-017 0.781832 0.62349 
5.96971e-017 0.974928 0.222521 5.96971e-017 0.974928 -0.222521 4.78734e-017 0.781832 -0.62349 
2.65677e-017 0.433884 -0.900969 -0.306802 0.306802 0.900969 -0.552838 0.552838 0.62349 
-0.689378 0.689378 0.222521 -0.689378 0.689378 -0.222521 -0.552838 0.552838 -0.62349 
-0.306802 0.306802 -0.900969 -0.433884 5.31354e-017 0.900969 -0.781832 9.57467e-017 0.62349 
-0.974928 1.19394e-016 0.222521 -0.974928 1.19394e-016 -0.222521 -0.781832 9.57467e-017 -0.62349 
-0.433884 5.31354e-017 -0.900969 -0.306802 -0.306802 0.900969 -0.552838 -0.552838 0.62349 
-0.689378 -0.689378 0.222521 -0.689378 -0.689378 -0.222521 -0.552838 -0.552838 -0.62349 
-0.306802 -0.306802 -0.900969 -7.97031e-017 -0.433884 0.900969 -1.4362e-016 -0.781832 0.62349 
-1.79091e-016 -0.974928 0.222521 -1.79091e-016 -0.974928 -0.222521 -1.4362e-016 -0.781832 -0.62349 
-7.97031e-017 -0.433884 -0.900969 0.306802 -0.306802 0.900969 0.552838 -0.552838 0.62349 
0.689378 -0.689378 0.222521 0.689378 -0.689378 -0.222521 0.552838 -0.552838 -0.62349 
0.306802 -0.306802 -0.900969 0 0 1 0 0 -1 
0.433884 0 0.900969 0.781832 0 0.62349 0.974928 0 0.222521 
0.974928 0 -0.222521 0.781832 0 -0.62349 0.433884 0 -0.900969 
0.306802 0.306802 0.900969 0.552838 0.552838 0.62349 0.689378 0.689378 0.222521 
0.689378 0.689378 -0.222521 0.552838 0.552838 -0.62349 0.306802 0.306802 -0.900969 
2.65677e-017 0.433884 0.900969 4.78734e-017 0.781832 0.62349 5.96971e-017 0.974928 0.222521 
5.96971e-017 0.974928 -0.222521 4.78734e-017 0.781832 -0.62349 2.65677e-017 0.433884 -0.900969 
-0.306802 0.306802 0.900969 -0.552838 0.552838 0.62349 -0.689378 0.689378 0.222521 
-0.689378 0.689378 -0.222521 -0.552838 0.552838 -0.62349 -0.306802 0.306802 -0.900969 
-0.433884 5.31354e-017 0.900969 -0.781832 9.57467e-017 0.62349 -0.974928 1.19394e-016 0.222521 
-0.974928 1.19394e-016 -0.222521 -0.781832 9.57467e-017 -0.62349 -0.433884 5.31354e-017 -0.900969 
-0.306802 -0.306802 0.900969 -0.552838 -0.552838 0.62349 -0.689378 -0.689378 0.222521 
-0.689378 -0.689378 -0.222521 -0.552838 -0.552838 -0.62349 -0.306802 -0.306802 -0.900969 
-7.97031e-017 -0.433884 0.900969 -1.4362e-016 -0.781832 0.62349 -1.79091e-016 -0.974928 0.222521 
-1.79091e-016 -0.974928 -0.222521 -1.4362e-016 -0.781832 -0.62349 -7.97031e-017 -0.433884 -0.900969 
0.306802 -0.306802 0.900969 0.552838 -0.552838 0.62349 0.689378 -0.689378 0.222521 
0.689378 -0.689378 -0.222521 0.552838 -0.552838 -0.62349 0.306802 -0.306802 -0.900969 
0 0 1 0 0 -1 0.433884 0 0.900969 
0.781832 0 0.62349 0.974928 0 0.222521 0.974928 0 -0.222521 
0.781832 0 -0.62349 0.433884 0 -0.900969 0.306802 0.306802 0.900969 
0.552838 0.552838 0.62349 0.689378 0.689378 0.222521 0.689378 0.689378 -0.222521 
0.552838 0.552838 -0.62349 0.306802 0.306802 -0.900969 2.65677e-017 0.433884 0.900969 
4.78734e-017 0.781832 0.62349 5.96971e-017 0.974928 0.222521 5.96971e-017 0.974928 -0.222521 
4.78734e-017 0.781832 -0.62349 2.65677e-017 0.433884 -0.900969 -0.306802 0.306802 0.900969 
-0.552838 0.552838 0.62349 -0.689378 0.689378 0.222521 -0.689378 0.689378 -0.222521 